
     Program PHONON v.7.3.1 starts on 12Sep2025 at  1:15:26 

     This program is part of the open-source Quantum ESPRESSO suite
     for quantum simulation of materials; please cite
         "P. Giannozzi et al., J. Phys.:Condens. Matter 21 395502 (2009);
         "P. Giannozzi et al., J. Phys.:Condens. Matter 29 465901 (2017);
         "P. Giannozzi et al., J. Chem. Phys. 152 154105 (2020);
          URL http://www.quantum-espresso.org", 
     in publications or presentations arising from this work. More details at
     http://www.quantum-espresso.org/quote

     Parallel version (MPI), running on    64 processors

     MPI processes distributed on     1 nodes
     510500 MiB available memory on the printing compute node when the environment starts
 
     Reading input from ph.in

     Reading xml data from directory:

     ./tmp/si.save/
 
     K-points division:     npool     =       4
     R & G space division:  proc/nbgrp/npool/nimage =      16
     Subspace diagonalization in iterative solution of the eigenvalue problem:
     a serial algorithm will be used


     IMPORTANT: XC functional enforced from input :
     Exchange-correlation= PBESOL
                           (   1   4  10   8   0   0   0)
     Any further DFT definition will be discarded
     Please, verify this is what you really want

 
     Parallelization info
     --------------------
     sticks:   dense  smooth     PW     G-vecs:    dense   smooth      PW
     Min          36      36     11                  577      577     101
     Max          37      37     12                  580      580     103
     Sum         583     583    187                 9257     9257    1639
 
     Using Slab Decomposition
 
     Reading collected, re-writing distributed wavefunctions in ./tmp/


     Dynamical matrices for ( 2, 2, 2)  uniform grid of q-points
     (   3 q-points):
       N         xq(1)         xq(2)         xq(3) 
       1   0.000000000   0.000000000   0.000000000
       2   0.500000000  -0.500000000   0.500000000
       3   0.000000000  -1.000000000   0.000000000

     Number and degeneracy of irreps per q-point
       N         xq(1)         xq(2)         xq(3)   N irreps
  autoval = -.1282E+01
     Irreps are as follows:

                     mode #   1
                     (  -0.57421   0.00000   ) 
                     (  -0.36125   0.00000   ) 
                     (   0.19945   0.00000   ) 
                     (   0.57421   0.00000   ) 
                     (   0.36125   0.00000   ) 
                     (  -0.19945   0.00000   ) 
  autoval = -.1282E+01
     Irreps are as follows:

                     mode #   2
                     (  -0.36974   0.00000   ) 
                     (   0.29866   0.00000   ) 
                     (  -0.52354   0.00000   ) 
                     (   0.36974   0.00000   ) 
                     (  -0.29866   0.00000   ) 
                     (   0.52354   0.00000   ) 
  autoval = -.1282E+01
     Irreps are as follows:

                     mode #   3
                     (  -0.18322   0.00000   ) 
                     (   0.52944   0.00000   ) 
                     (   0.43142   0.00000   ) 
                     (   0.18322   0.00000   ) 
                     (  -0.52944   0.00000   ) 
                     (  -0.43142   0.00000   ) 
  autoval = 0.4148E+01
     Irreps are as follows:

                     mode #   4
                     (  -0.14400   0.00000   ) 
                     (   0.06326   0.00000   ) 
                     (  -0.68939   0.00000   ) 
                     (  -0.14400   0.00000   ) 
                     (   0.06326   0.00000   ) 
                     (  -0.68939   0.00000   ) 
  autoval = 0.4148E+01
     Irreps are as follows:

                     mode #   5
                     (  -0.21483   0.00000   ) 
                     (   0.66530   0.00000   ) 
                     (   0.10593   0.00000   ) 
                     (  -0.21483   0.00000   ) 
                     (   0.66530   0.00000   ) 
                     (   0.10593   0.00000   ) 
  autoval = 0.4148E+01
     Irreps are as follows:

                     mode #   6
                     (  -0.65811   0.00000   ) 
                     (  -0.23102   0.00000   ) 
                     (   0.11627   0.00000   ) 
                     (  -0.65811   0.00000   ) 
                     (  -0.23102   0.00000   ) 
                     (   0.11627   0.00000   ) 
       1   0.000000000   0.000000000   0.000000000       2
        3   3
  autoval = -.5907E+01
     Irreps are as follows:

                     mode #   1
                     (  -0.40825   0.00000   ) 
                     (   0.40825   0.00000   ) 
                     (  -0.40825   0.00000   ) 
                     (   0.40825   0.00000   ) 
                     (  -0.40825   0.00000   ) 
                     (   0.40825   0.00000   ) 
  autoval = 0.8672E+00
     Irreps are as follows:

                     mode #   2
                     (  -0.40825   0.00000   ) 
                     (   0.40825   0.00000   ) 
                     (  -0.40825   0.00000   ) 
                     (  -0.40825   0.00000   ) 
                     (   0.40825   0.00000   ) 
                     (  -0.40825   0.00000   ) 
  autoval = 0.1031E+01
     Irreps are as follows:

                     mode #   3
                     (  -0.27099   0.00000   ) 
                     (   0.30600   0.00000   ) 
                     (   0.57700   0.00000   ) 
                     (   0.27099   0.00000   ) 
                     (  -0.30600   0.00000   ) 
                     (  -0.57700   0.00000   ) 
  autoval = 0.1031E+01
     Irreps are as follows:

                     mode #   4
                     (  -0.50980   0.00000   ) 
                     (  -0.48959   0.00000   ) 
                     (   0.02021   0.00000   ) 
                     (   0.50980   0.00000   ) 
                     (   0.48959   0.00000   ) 
                     (  -0.02021   0.00000   ) 
  autoval = 0.5788E+01
     Irreps are as follows:

                     mode #   5
                     (  -0.27625   0.00000   ) 
                     (   0.30093   0.00000   ) 
                     (   0.57717   0.00000   ) 
                     (  -0.27625   0.00000   ) 
                     (   0.30093   0.00000   ) 
                     (   0.57717   0.00000   ) 
  autoval = 0.5788E+01
     Irreps are as follows:

                     mode #   6
                     (  -0.50697   0.00000   ) 
                     (  -0.49272   0.00000   ) 
                     (   0.01425   0.00000   ) 
                     (  -0.50697   0.00000   ) 
                     (  -0.49272   0.00000   ) 
                     (   0.01425   0.00000   ) 
       2   0.500000000  -0.500000000   0.500000000       4
        1   1   2   2
  autoval = 0.4685E+00
     Irreps are as follows:

                     mode #   1
                     (  -0.25066   0.00000   ) 
                     (   0.00000  -0.00000   ) 
                     (  -0.66119   0.00000   ) 
                     (   0.66119  -0.00000   ) 
                     (  -0.00000   0.00000   ) 
                     (   0.25066   0.00000   ) 
  autoval = 0.4685E+00
     Irreps are as follows:

                     mode #   2
                     (  -0.66119  -0.00000   ) 
                     (  -0.00000   0.00000   ) 
                     (   0.25066  -0.00000   ) 
                     (  -0.25066   0.00000   ) 
                     (   0.00000   0.00000   ) 
                     (   0.66119   0.00000   ) 
  autoval = 0.7867E+00
     Irreps are as follows:

                     mode #   3
                     (   0.00000   0.00000   ) 
                     (  -0.99403   0.00000   ) 
                     (   0.00000   0.00000   ) 
                     (   0.00000  -0.00000   ) 
                     (  -0.10914  -0.00000   ) 
                     (   0.00000   0.00000   ) 
  autoval = 0.7867E+00
     Irreps are as follows:

                     mode #   4
                     (   0.00000  -0.00000   ) 
                     (  -0.10914  -0.00000   ) 
                     (  -0.00000  -0.00000   ) 
                     (   0.00000   0.00000   ) 
                     (   0.99403   0.00000   ) 
                     (  -0.00000   0.00000   ) 
  autoval = 0.3043E+01
     Irreps are as follows:

                     mode #   5
                     (  -0.66137   0.00000   ) 
                     (   0.00000  -0.00000   ) 
                     (   0.25017  -0.00000   ) 
                     (   0.25017  -0.00000   ) 
                     (   0.00000  -0.00000   ) 
                     (  -0.66137  -0.00000   ) 
  autoval = 0.3043E+01
     Irreps are as follows:

                     mode #   6
                     (  -0.25017   0.00000   ) 
                     (  -0.00000   0.00000   ) 
                     (  -0.66137   0.00000   ) 
                     (  -0.66137   0.00000   ) 
                     (  -0.00000  -0.00000   ) 
                     (  -0.25017  -0.00000   ) 
       3   0.000000000  -1.000000000   0.000000000       3
        2   2   2

     Saving dvscf to file. Distribute only q points, not irreducible representations.

     Calculation of q =    0.0000000   0.0000000   0.0000000

     Phonons on a uniform grid                                                  

     bravais-lattice index     =            2
     lattice parameter (alat)  =      10.2640  a.u.
     unit-cell volume          =     270.3273 (a.u.)^3
     number of atoms/cell      =            2
     number of atomic types    =            1
     kinetic-energy cut-off    =      40.0000  Ry
     charge density cut-off    =     160.0000  Ry
     convergence threshold     =      1.0E-17
     beta                      =       0.7000
     number of iterations used =            4
     Exchange-correlation= PBESOL
                           (   1   4  10   8   0   0   0)


     celldm(1)=   10.26400  celldm(2)=    0.00000  celldm(3)=    0.00000
     celldm(4)=    0.00000  celldm(5)=    0.00000  celldm(6)=    0.00000

     crystal axes: (cart. coord. in units of alat)
               a(1) = ( -0.5000  0.0000  0.5000 )  
               a(2) = (  0.0000  0.5000  0.5000 )  
               a(3) = ( -0.5000  0.5000  0.0000 )  

     reciprocal axes: (cart. coord. in units 2 pi/alat)
               b(1) = ( -1.0000 -1.0000  1.0000 )  
               b(2) = (  1.0000  1.0000  1.0000 )  
               b(3) = ( -1.0000  1.0000 -1.0000 )  


     Atoms inside the unit cell: 

     Cartesian axes

     site n.  atom      mass           positions (alat units)
        1  Si     28.0850   tau(    1) = (    0.00000    0.00000    0.00000  )
        2  Si     28.0850   tau(    2) = (    0.25000    0.25000    0.25000  )

     Computing dynamical matrix for 
                    q = (   0.0000000   0.0000000   0.0000000 )
 
     49 Sym.Ops. (with q -> -q+G )

                                    s                        frac. trans.

      isym =  1     identity                                     

 cryst.   s( 1) = (     1          0          0      )
                  (     0          1          0      )
                  (     0          0          1      )

 cart.    s( 1) = (  1.0000000  0.0000000  0.0000000 )
                  (  0.0000000  1.0000000  0.0000000 )
                  (  0.0000000  0.0000000  1.0000000 )


      isym =  2     180 deg rotation - cart. axis [-1,0,1]       

 cryst.   s( 2) = (     1          0          0      )    f =(  0.2500000 )
                  (     1         -1          0      )       (  0.2500000 )
                  (     1          0         -1      )       (  0.2500000 )

 cart.    s( 2) = (  0.0000000  0.0000000 -1.0000000 )    f =( -0.2500000 )
                  (  0.0000000 -1.0000000  0.0000000 )       (  0.2500000 )
                  ( -1.0000000  0.0000000  0.0000000 )       (  0.2500000 )


      isym =  3     inversion                                    

 cryst.   s( 3) = (    -1          0          0      )    f =(  0.2500000 )
                  (     0         -1          0      )       (  0.2500000 )
                  (     0          0         -1      )       (  0.2500000 )

 cart.    s( 3) = ( -1.0000000  0.0000000  0.0000000 )    f =( -0.2500000 )
                  (  0.0000000 -1.0000000  0.0000000 )       (  0.2500000 )
                  (  0.0000000  0.0000000 -1.0000000 )       (  0.2500000 )


      isym =  4     inv. 180 deg rotation - cart. axis [-1,0,1]  

 cryst.   s( 4) = (    -1          0          0      )
                  (    -1          1          0      )
                  (    -1          0          1      )

 cart.    s( 4) = (  0.0000000  0.0000000  1.0000000 )
                  (  0.0000000  1.0000000  0.0000000 )
                  (  1.0000000  0.0000000  0.0000000 )


      isym =  5     180 deg rotation - cart. axis [1,0,0]        

 cryst.   s( 5) = (     0         -1          1      )
                  (     0         -1          0      )
                  (     1         -1          0      )

 cart.    s( 5) = (  1.0000000  0.0000000  0.0000000 )
                  (  0.0000000 -1.0000000  0.0000000 )
                  (  0.0000000  0.0000000 -1.0000000 )


      isym =  6     180 deg rotation - cart. axis [0,0,1]        

 cryst.   s( 6) = (     0          1         -1      )
                  (     1          0         -1      )
                  (     0          0         -1      )

 cart.    s( 6) = ( -1.0000000  0.0000000  0.0000000 )
                  (  0.0000000 -1.0000000  0.0000000 )
                  (  0.0000000  0.0000000  1.0000000 )


      isym =  7     inv. 180 deg rotation - cart. axis [0,0,1]   

 cryst.   s( 7) = (     0         -1          1      )    f =(  0.2500000 )
                  (    -1          0          1      )       (  0.2500000 )
                  (     0          0          1      )       (  0.2500000 )

 cart.    s( 7) = (  1.0000000  0.0000000  0.0000000 )    f =( -0.2500000 )
                  (  0.0000000  1.0000000  0.0000000 )       (  0.2500000 )
                  (  0.0000000  0.0000000 -1.0000000 )       (  0.2500000 )


      isym =  8     inv. 180 deg rotation - cart. axis [0,1,0]   

 cryst.   s( 8) = (     1          0          0      )    f =(  0.2500000 )
                  (     1          0         -1      )       (  0.2500000 )
                  (     1         -1          0      )       (  0.2500000 )

 cart.    s( 8) = (  1.0000000  0.0000000  0.0000000 )    f =( -0.2500000 )
                  (  0.0000000 -1.0000000  0.0000000 )       (  0.2500000 )
                  (  0.0000000  0.0000000  1.0000000 )       (  0.2500000 )


      isym =  9     inv. 180 deg rotation - cart. axis [1,0,0]   

 cryst.   s( 9) = (     0          1         -1      )    f =(  0.2500000 )
                  (     0          1          0      )       (  0.2500000 )
                  (    -1          1          0      )       (  0.2500000 )

 cart.    s( 9) = ( -1.0000000  0.0000000  0.0000000 )    f =( -0.2500000 )
                  (  0.0000000  1.0000000  0.0000000 )       (  0.2500000 )
                  (  0.0000000  0.0000000  1.0000000 )       (  0.2500000 )


      isym = 10     inv. 180 deg rotation - cart. axis [1,0,1]   

 cryst.   s(10) = (     1          0          0      )
                  (     0          0          1      )
                  (     0          1          0      )

 cart.    s(10) = (  0.0000000  0.0000000 -1.0000000 )
                  (  0.0000000  1.0000000  0.0000000 )
                  ( -1.0000000  0.0000000  0.0000000 )


      isym = 11     180 deg rotation - cart. axis [1,0,1]        

 cryst.   s(11) = (    -1          0          0      )    f =(  0.2500000 )
                  (     0          0         -1      )       (  0.2500000 )
                  (     0         -1          0      )       (  0.2500000 )

 cart.    s(11) = (  0.0000000  0.0000000  1.0000000 )    f =( -0.2500000 )
                  (  0.0000000 -1.0000000  0.0000000 )       (  0.2500000 )
                  (  1.0000000  0.0000000  0.0000000 )       (  0.2500000 )


      isym = 12     inv.  90 deg rotation - cart. axis [0,1,0]   

 cryst.   s(12) = (     0         -1          1      )
                  (     1         -1          0      )
                  (     0         -1          0      )

 cart.    s(12) = (  0.0000000  0.0000000 -1.0000000 )
                  (  0.0000000 -1.0000000  0.0000000 )
                  (  1.0000000  0.0000000  0.0000000 )


      isym = 13     inv.  90 deg rotation - cart. axis [0,-1,0]  

 cryst.   s(13) = (     0          1         -1      )
                  (     0          0         -1      )
                  (     1          0         -1      )

 cart.    s(13) = (  0.0000000  0.0000000  1.0000000 )
                  (  0.0000000 -1.0000000  0.0000000 )
                  ( -1.0000000  0.0000000  0.0000000 )


      isym = 14     180 deg rotation - cart. axis [0,1,0]        

 cryst.   s(14) = (    -1          0          0      )
                  (    -1          0          1      )
                  (    -1          1          0      )

 cart.    s(14) = ( -1.0000000  0.0000000  0.0000000 )
                  (  0.0000000  1.0000000  0.0000000 )
                  (  0.0000000  0.0000000 -1.0000000 )


      isym = 15      90 deg rotation - cart. axis [0,1,0]        

 cryst.   s(15) = (     0          1         -1      )    f =(  0.2500000 )
                  (    -1          1          0      )       (  0.2500000 )
                  (     0          1          0      )       (  0.2500000 )

 cart.    s(15) = (  0.0000000  0.0000000  1.0000000 )    f =( -0.2500000 )
                  (  0.0000000  1.0000000  0.0000000 )       (  0.2500000 )
                  ( -1.0000000  0.0000000  0.0000000 )       (  0.2500000 )


      isym = 16      90 deg rotation - cart. axis [0,-1,0]       

 cryst.   s(16) = (     0         -1          1      )    f =(  0.2500000 )
                  (     0          0          1      )       (  0.2500000 )
                  (    -1          0          1      )       (  0.2500000 )

 cart.    s(16) = (  0.0000000  0.0000000 -1.0000000 )    f =( -0.2500000 )
                  (  0.0000000  1.0000000  0.0000000 )       (  0.2500000 )
                  (  1.0000000  0.0000000  0.0000000 )       (  0.2500000 )


      isym = 17     120 deg rotation - cart. axis [-1,-1,-1]     

 cryst.   s(17) = (    -1          0          1      )
                  (    -1          1          0      )
                  (    -1          0          0      )

 cart.    s(17) = (  0.0000000  1.0000000  0.0000000 )
                  (  0.0000000  0.0000000  1.0000000 )
                  (  1.0000000  0.0000000  0.0000000 )


      isym = 18     120 deg rotation - cart. axis [-1,1,1]       

 cryst.   s(18) = (     0          1          0      )
                  (     0          0          1      )
                  (     1          0          0      )

 cart.    s(18) = (  0.0000000 -1.0000000  0.0000000 )
                  (  0.0000000  0.0000000  1.0000000 )
                  ( -1.0000000  0.0000000  0.0000000 )


      isym = 19     120 deg rotation - cart. axis [1,1,-1]       

 cryst.   s(19) = (     1          0         -1      )
                  (     0          0         -1      )
                  (     0          1         -1      )

 cart.    s(19) = (  0.0000000  1.0000000  0.0000000 )
                  (  0.0000000  0.0000000 -1.0000000 )
                  ( -1.0000000  0.0000000  0.0000000 )


      isym = 20     120 deg rotation - cart. axis [-1,1,-1]      

 cryst.   s(20) = (    -1          1          0      )
                  (    -1          0          0      )
                  (    -1          0          1      )

 cart.    s(20) = (  0.0000000  0.0000000  1.0000000 )
                  ( -1.0000000  0.0000000  0.0000000 )
                  (  0.0000000 -1.0000000  0.0000000 )


      isym = 21     120 deg rotation - cart. axis [1,1,1]        

 cryst.   s(21) = (     0          0         -1      )
                  (     0          1         -1      )
                  (     1          0         -1      )

 cart.    s(21) = (  0.0000000  0.0000000  1.0000000 )
                  (  1.0000000  0.0000000  0.0000000 )
                  (  0.0000000  1.0000000  0.0000000 )


      isym = 22     180 deg rotation - cart. axis [1,-1,0]       

 cryst.   s(22) = (    -1          0          1      )    f =(  0.2500000 )
                  (     0         -1          1      )       (  0.2500000 )
                  (     0          0          1      )       (  0.2500000 )

 cart.    s(22) = (  0.0000000 -1.0000000  0.0000000 )    f =( -0.2500000 )
                  ( -1.0000000  0.0000000  0.0000000 )       (  0.2500000 )
                  (  0.0000000  0.0000000 -1.0000000 )       (  0.2500000 )


      isym = 23     120 deg rotation - cart. axis [1,-1,-1]      

 cryst.   s(23) = (     0          0          1      )
                  (     1          0          0      )
                  (     0          1          0      )

 cart.    s(23) = (  0.0000000  0.0000000 -1.0000000 )
                  ( -1.0000000  0.0000000  0.0000000 )
                  (  0.0000000  1.0000000  0.0000000 )


      isym = 24     120 deg rotation - cart. axis [-1,-1,1]      

 cryst.   s(24) = (     1         -1          0      )
                  (     0         -1          1      )
                  (     0         -1          0      )

 cart.    s(24) = (  0.0000000  0.0000000 -1.0000000 )
                  (  1.0000000  0.0000000  0.0000000 )
                  (  0.0000000 -1.0000000  0.0000000 )


      isym = 25      90 deg rotation - cart. axis [0,0,-1]       

 cryst.   s(25) = (     0          1          0      )    f =(  0.2500000 )
                  (     0          1         -1      )       (  0.2500000 )
                  (    -1          1          0      )       (  0.2500000 )

 cart.    s(25) = (  0.0000000  1.0000000  0.0000000 )    f =( -0.2500000 )
                  ( -1.0000000  0.0000000  0.0000000 )       (  0.2500000 )
                  (  0.0000000  0.0000000  1.0000000 )       (  0.2500000 )


      isym = 26     180 deg rotation - cart. axis [1,1,0]        

 cryst.   s(26) = (     0         -1          0      )    f =(  0.2500000 )
                  (    -1          0          0      )       (  0.2500000 )
                  (     0          0         -1      )       (  0.2500000 )

 cart.    s(26) = (  0.0000000  1.0000000  0.0000000 )    f =( -0.2500000 )
                  (  1.0000000  0.0000000  0.0000000 )       (  0.2500000 )
                  (  0.0000000  0.0000000 -1.0000000 )       (  0.2500000 )


      isym = 27     inv. 180 deg rotation - cart. axis [1,1,0]   

 cryst.   s(27) = (     0          1          0      )
                  (     1          0          0      )
                  (     0          0          1      )

 cart.    s(27) = (  0.0000000 -1.0000000  0.0000000 )
                  ( -1.0000000  0.0000000  0.0000000 )
                  (  0.0000000  0.0000000  1.0000000 )


      isym = 28     180 deg rotation - cart. axis [0,1,1]        

 cryst.   s(28) = (    -1          1          0      )    f =(  0.2500000 )
                  (     0          1          0      )       (  0.2500000 )
                  (     0          1         -1      )       (  0.2500000 )

 cart.    s(28) = ( -1.0000000  0.0000000  0.0000000 )    f =( -0.2500000 )
                  (  0.0000000  0.0000000  1.0000000 )       (  0.2500000 )
                  (  0.0000000  1.0000000  0.0000000 )       (  0.2500000 )


      isym = 29      90 deg rotation - cart. axis [0,0,1]        

 cryst.   s(29) = (     1          0         -1      )    f =(  0.2500000 )
                  (     1          0          0      )       (  0.2500000 )
                  (     1         -1          0      )       (  0.2500000 )

 cart.    s(29) = (  0.0000000 -1.0000000  0.0000000 )    f =( -0.2500000 )
                  (  1.0000000  0.0000000  0.0000000 )       (  0.2500000 )
                  (  0.0000000  0.0000000  1.0000000 )       (  0.2500000 )


      isym = 30     inv. 180 deg rotation - cart. axis [1,-1,0]  

 cryst.   s(30) = (     1          0         -1      )
                  (     0          1         -1      )
                  (     0          0         -1      )

 cart.    s(30) = (  0.0000000  1.0000000  0.0000000 )
                  (  1.0000000  0.0000000  0.0000000 )
                  (  0.0000000  0.0000000  1.0000000 )


      isym = 31     inv.  90 deg rotation - cart. axis [0,0,-1]  

 cryst.   s(31) = (     0         -1          0      )
                  (     0         -1          1      )
                  (     1         -1          0      )

 cart.    s(31) = (  0.0000000 -1.0000000  0.0000000 )
                  (  1.0000000  0.0000000  0.0000000 )
                  (  0.0000000  0.0000000 -1.0000000 )


      isym = 32     inv.  90 deg rotation - cart. axis [0,0,1]   

 cryst.   s(32) = (    -1          0          1      )
                  (    -1          0          0      )
                  (    -1          1          0      )

 cart.    s(32) = (  0.0000000  1.0000000  0.0000000 )
                  ( -1.0000000  0.0000000  0.0000000 )
                  (  0.0000000  0.0000000 -1.0000000 )


      isym = 33     inv. 180 deg rotation - cart. axis [0,1,1]   

 cryst.   s(33) = (     1         -1          0      )
                  (     0         -1          0      )
                  (     0         -1          1      )

 cart.    s(33) = (  1.0000000  0.0000000  0.0000000 )
                  (  0.0000000  0.0000000 -1.0000000 )
                  (  0.0000000 -1.0000000  0.0000000 )


      isym = 34     inv. 120 deg rotation - cart. axis [1,-1,1]  

 cryst.   s(34) = (     0          1          0      )    f =(  0.2500000 )
                  (    -1          1          0      )       (  0.2500000 )
                  (     0          1         -1      )       (  0.2500000 )

 cart.    s(34) = (  0.0000000  1.0000000  0.0000000 )    f =( -0.2500000 )
                  (  0.0000000  0.0000000  1.0000000 )       (  0.2500000 )
                  ( -1.0000000  0.0000000  0.0000000 )       (  0.2500000 )


      isym = 35     inv. 120 deg rotation - cart. axis [-1,1,-1] 

 cryst.   s(35) = (     1         -1          0      )    f =(  0.2500000 )
                  (     1          0          0      )       (  0.2500000 )
                  (     1          0         -1      )       (  0.2500000 )

 cart.    s(35) = (  0.0000000  0.0000000 -1.0000000 )    f =( -0.2500000 )
                  (  1.0000000  0.0000000  0.0000000 )       (  0.2500000 )
                  (  0.0000000  1.0000000  0.0000000 )       (  0.2500000 )


      isym = 36     120 deg rotation - cart. axis [1,-1,1]       

 cryst.   s(36) = (     0         -1          0      )
                  (     1         -1          0      )
                  (     0         -1          1      )

 cart.    s(36) = (  0.0000000 -1.0000000  0.0000000 )
                  (  0.0000000  0.0000000 -1.0000000 )
                  (  1.0000000  0.0000000  0.0000000 )


      isym = 37     180 deg rotation - cart. axis [0,1,-1]       

 cryst.   s(37) = (     0          0         -1      )    f =(  0.2500000 )
                  (     0         -1          0      )       (  0.2500000 )
                  (    -1          0          0      )       (  0.2500000 )

 cart.    s(37) = ( -1.0000000  0.0000000  0.0000000 )    f =( -0.2500000 )
                  (  0.0000000  0.0000000 -1.0000000 )       (  0.2500000 )
                  (  0.0000000 -1.0000000  0.0000000 )       (  0.2500000 )


      isym = 38     inv. 180 deg rotation - cart. axis [0,1,-1]  

 cryst.   s(38) = (     0          0          1      )
                  (     0          1          0      )
                  (     1          0          0      )

 cart.    s(38) = (  1.0000000  0.0000000  0.0000000 )
                  (  0.0000000  0.0000000  1.0000000 )
                  (  0.0000000  1.0000000  0.0000000 )


      isym = 39     inv.  90 deg rotation - cart. axis [-1,0,0]  

 cryst.   s(39) = (     0          0         -1      )
                  (     1          0         -1      )
                  (     0          1         -1      )

 cart.    s(39) = ( -1.0000000  0.0000000  0.0000000 )
                  (  0.0000000  0.0000000 -1.0000000 )
                  (  0.0000000  1.0000000  0.0000000 )


      isym = 40     inv.  90 deg rotation - cart. axis [1,0,0]   

 cryst.   s(40) = (    -1          1          0      )
                  (    -1          0          1      )
                  (    -1          0          0      )

 cart.    s(40) = ( -1.0000000  0.0000000  0.0000000 )
                  (  0.0000000  0.0000000  1.0000000 )
                  (  0.0000000 -1.0000000  0.0000000 )


      isym = 41     inv. 120 deg rotation - cart. axis [-1,-1,-1]

 cryst.   s(41) = (     1          0         -1      )    f =(  0.2500000 )
                  (     1         -1          0      )       (  0.2500000 )
                  (     1          0          0      )       (  0.2500000 )

 cart.    s(41) = (  0.0000000 -1.0000000  0.0000000 )    f =( -0.2500000 )
                  (  0.0000000  0.0000000 -1.0000000 )       (  0.2500000 )
                  ( -1.0000000  0.0000000  0.0000000 )       (  0.2500000 )


      isym = 42     inv. 120 deg rotation - cart. axis [-1,1,1]  

 cryst.   s(42) = (     0         -1          0      )    f =(  0.2500000 )
                  (     0          0         -1      )       (  0.2500000 )
                  (    -1          0          0      )       (  0.2500000 )

 cart.    s(42) = (  0.0000000  1.0000000  0.0000000 )    f =( -0.2500000 )
                  (  0.0000000  0.0000000 -1.0000000 )       (  0.2500000 )
                  (  1.0000000  0.0000000  0.0000000 )       (  0.2500000 )


      isym = 43     inv. 120 deg rotation - cart. axis [1,1,-1]  

 cryst.   s(43) = (    -1          0          1      )    f =(  0.2500000 )
                  (     0          0          1      )       (  0.2500000 )
                  (     0         -1          1      )       (  0.2500000 )

 cart.    s(43) = (  0.0000000 -1.0000000  0.0000000 )    f =( -0.2500000 )
                  (  0.0000000  0.0000000  1.0000000 )       (  0.2500000 )
                  (  1.0000000  0.0000000  0.0000000 )       (  0.2500000 )


      isym = 44      90 deg rotation - cart. axis [-1,0,0]       

 cryst.   s(44) = (     0          0          1      )    f =(  0.2500000 )
                  (    -1          0          1      )       (  0.2500000 )
                  (     0         -1          1      )       (  0.2500000 )

 cart.    s(44) = (  1.0000000  0.0000000  0.0000000 )    f =( -0.2500000 )
                  (  0.0000000  0.0000000  1.0000000 )       (  0.2500000 )
                  (  0.0000000 -1.0000000  0.0000000 )       (  0.2500000 )


      isym = 45     inv. 120 deg rotation - cart. axis [1,1,1]   

 cryst.   s(45) = (     0          0          1      )    f =(  0.2500000 )
                  (     0         -1          1      )       (  0.2500000 )
                  (    -1          0          1      )       (  0.2500000 )

 cart.    s(45) = (  0.0000000  0.0000000 -1.0000000 )    f =( -0.2500000 )
                  ( -1.0000000  0.0000000  0.0000000 )       (  0.2500000 )
                  (  0.0000000 -1.0000000  0.0000000 )       (  0.2500000 )


      isym = 46      90 deg rotation - cart. axis [1,0,0]        

 cryst.   s(46) = (     1         -1          0      )    f =(  0.2500000 )
                  (     1          0         -1      )       (  0.2500000 )
                  (     1          0          0      )       (  0.2500000 )

 cart.    s(46) = (  1.0000000  0.0000000  0.0000000 )    f =( -0.2500000 )
                  (  0.0000000  0.0000000 -1.0000000 )       (  0.2500000 )
                  (  0.0000000  1.0000000  0.0000000 )       (  0.2500000 )


      isym = 47     inv. 120 deg rotation - cart. axis [1,-1,-1] 

 cryst.   s(47) = (     0          0         -1      )    f =(  0.2500000 )
                  (    -1          0          0      )       (  0.2500000 )
                  (     0         -1          0      )       (  0.2500000 )

 cart.    s(47) = (  0.0000000  0.0000000  1.0000000 )    f =( -0.2500000 )
                  (  1.0000000  0.0000000  0.0000000 )       (  0.2500000 )
                  (  0.0000000 -1.0000000  0.0000000 )       (  0.2500000 )


      isym = 48     inv. 120 deg rotation - cart. axis [-1,-1,1] 

 cryst.   s(48) = (    -1          1          0      )    f =(  0.2500000 )
                  (     0          1         -1      )       (  0.2500000 )
                  (     0          1          0      )       (  0.2500000 )

 cart.    s(48) = (  0.0000000  0.0000000  1.0000000 )    f =( -0.2500000 )
                  ( -1.0000000  0.0000000  0.0000000 )       (  0.2500000 )
                  (  0.0000000  1.0000000  0.0000000 )       (  0.2500000 )


     This transformation sends q -> -q+G

      isym = 49     identity                                     

 cryst.   s(49) = (     1          0          0      )
                  (     0          1          0      )
                  (     0          0          1      )

 cart.    s(49) = (  1.0000000  0.0000000  0.0000000 )
                  (  0.0000000  1.0000000  0.0000000 )
                  (  0.0000000  0.0000000  1.0000000 )


     G cutoff =  426.9662  (    578 G-vectors)     FFT grid: ( 32, 32, 32)
     number of k points=    29
                       cart. coord. in units 2pi/alat
        k(    1) = (   0.0000000   0.0000000   0.0000000), wk =   0.0039062
        k(    2) = (  -0.1250000   0.1250000  -0.1250000), wk =   0.0312500
        k(    3) = (  -0.2500000   0.2500000  -0.2500000), wk =   0.0312500
        k(    4) = (  -0.3750000   0.3750000  -0.3750000), wk =   0.0312500
        k(    5) = (   0.5000000  -0.5000000   0.5000000), wk =   0.0156250
        k(    6) = (   0.0000000   0.2500000   0.0000000), wk =   0.0234375
        k(    7) = (  -0.1250000   0.3750000  -0.1250000), wk =   0.0937500
        k(    8) = (  -0.2500000   0.5000000  -0.2500000), wk =   0.0937500
        k(    9) = (   0.6250000  -0.3750000   0.6250000), wk =   0.0937500
        k(   10) = (   0.5000000  -0.2500000   0.5000000), wk =   0.0937500
        k(   11) = (   0.3750000  -0.1250000   0.3750000), wk =   0.0937500
        k(   12) = (   0.2500000   0.0000000   0.2500000), wk =   0.0468750
        k(   13) = (   0.0000000   0.5000000   0.0000000), wk =   0.0234375
        k(   14) = (  -0.1250000   0.6250000  -0.1250000), wk =   0.0937500
        k(   15) = (   0.7500000  -0.2500000   0.7500000), wk =   0.0937500
        k(   16) = (   0.6250000  -0.1250000   0.6250000), wk =   0.0937500
        k(   17) = (   0.5000000   0.0000000   0.5000000), wk =   0.0468750
        k(   18) = (   0.0000000   0.7500000   0.0000000), wk =   0.0234375
        k(   19) = (   0.8750000  -0.1250000   0.8750000), wk =   0.0937500
        k(   20) = (   0.7500000   0.0000000   0.7500000), wk =   0.0468750
        k(   21) = (   0.0000000  -1.0000000   0.0000000), wk =   0.0117188
        k(   22) = (  -0.2500000   0.5000000   0.0000000), wk =   0.0937500
        k(   23) = (   0.6250000  -0.3750000   0.8750000), wk =   0.1875000
        k(   24) = (   0.5000000  -0.2500000   0.7500000), wk =   0.0937500
        k(   25) = (   0.7500000  -0.2500000   1.0000000), wk =   0.0937500
        k(   26) = (   0.6250000  -0.1250000   0.8750000), wk =   0.1875000
        k(   27) = (   0.5000000   0.0000000   0.7500000), wk =   0.0937500
        k(   28) = (  -0.2500000  -1.0000000   0.0000000), wk =   0.0468750
        k(   29) = (  -0.5000000  -1.0000000   0.0000000), wk =   0.0234375

                       cryst. coord.
        k(    1) = (   0.0000000   0.0000000   0.0000000), wk =   0.0039062
        k(    2) = (   0.0000000   0.0000000   0.1250000), wk =   0.0312500
        k(    3) = (   0.0000000   0.0000000   0.2500000), wk =   0.0312500
        k(    4) = (   0.0000000   0.0000000   0.3750000), wk =   0.0312500
        k(    5) = (   0.0000000   0.0000000  -0.5000000), wk =   0.0156250
        k(    6) = (   0.0000000   0.1250000   0.1250000), wk =   0.0234375
        k(    7) = (   0.0000000   0.1250000   0.2500000), wk =   0.0937500
        k(    8) = (   0.0000000   0.1250000   0.3750000), wk =   0.0937500
        k(    9) = (   0.0000000   0.1250000  -0.5000000), wk =   0.0937500
        k(   10) = (   0.0000000   0.1250000  -0.3750000), wk =   0.0937500
        k(   11) = (   0.0000000   0.1250000  -0.2500000), wk =   0.0937500
        k(   12) = (   0.0000000   0.1250000  -0.1250000), wk =   0.0468750
        k(   13) = (   0.0000000   0.2500000   0.2500000), wk =   0.0234375
        k(   14) = (   0.0000000   0.2500000   0.3750000), wk =   0.0937500
        k(   15) = (   0.0000000   0.2500000  -0.5000000), wk =   0.0937500
        k(   16) = (   0.0000000   0.2500000  -0.3750000), wk =   0.0937500
        k(   17) = (   0.0000000   0.2500000  -0.2500000), wk =   0.0468750
        k(   18) = (   0.0000000   0.3750000   0.3750000), wk =   0.0234375
        k(   19) = (   0.0000000   0.3750000  -0.5000000), wk =   0.0937500
        k(   20) = (   0.0000000   0.3750000  -0.3750000), wk =   0.0468750
        k(   21) = (   0.0000000  -0.5000000  -0.5000000), wk =   0.0117188
        k(   22) = (   0.1250000   0.2500000   0.3750000), wk =   0.0937500
        k(   23) = (   0.1250000   0.2500000  -0.5000000), wk =   0.1875000
        k(   24) = (   0.1250000   0.2500000  -0.3750000), wk =   0.0937500
        k(   25) = (   0.1250000   0.3750000  -0.5000000), wk =   0.0937500
        k(   26) = (   0.1250000   0.3750000  -0.3750000), wk =   0.1875000
        k(   27) = (   0.1250000   0.3750000  -0.2500000), wk =   0.0937500
        k(   28) = (   0.1250000  -0.5000000  -0.3750000), wk =   0.0468750
        k(   29) = (   0.2500000  -0.5000000  -0.2500000), wk =   0.0234375

     PseudoPot. # 1 for Si read from file:
     ../pseudo/Si_DOJO_PBEsol.upf
     MD5 check sum: 634e5fb0bdd2c4a07ca8312dc9ca950d
     Pseudo is Norm-conserving + core correction, Zval =  4.0
     Generated using ONCVPSP code by D. R. Hamann
     Using radial grid of 1528 points,  6 beta functions with: 
                l(1) =   0
                l(2) =   0
                l(3) =   1
                l(4) =   1
                l(5) =   2
                l(6) =   2

     point group O_h (m-3m) 
     there are 10 classes
     the character table:

       E     8C3   3C2   6C4   6C2'  i     8S6   3s_h  6S4   6s_d 
A_1g   1.00  1.00  1.00  1.00  1.00  1.00  1.00  1.00  1.00  1.00
A_2g   1.00  1.00  1.00 -1.00 -1.00  1.00  1.00  1.00 -1.00 -1.00
E_g    2.00 -1.00  2.00  0.00  0.00  2.00 -1.00  2.00  0.00  0.00
T_1g   3.00  0.00 -1.00  1.00 -1.00  3.00  0.00 -1.00  1.00 -1.00
T_2g   3.00  0.00 -1.00 -1.00  1.00  3.00  0.00 -1.00 -1.00  1.00
A_1u   1.00  1.00  1.00  1.00  1.00 -1.00 -1.00 -1.00 -1.00 -1.00
A_2u   1.00  1.00  1.00 -1.00 -1.00 -1.00 -1.00 -1.00  1.00  1.00
E_u    2.00 -1.00  2.00  0.00  0.00 -2.00  1.00 -2.00  0.00  0.00
T_1u   3.00  0.00 -1.00  1.00 -1.00 -3.00  0.00  1.00 -1.00  1.00
T_2u   3.00  0.00 -1.00 -1.00  1.00 -3.00  0.00  1.00  1.00 -1.00

     the symmetry operations in each class and the name of the first element:

     E        1
                                                                 
     8C3     17   21   18   19   36   20   24   23
                                                                 
     3C2      5    6   14
                                                                 
     6C4     15   16   46   44   25   29
                                                                 
     6C2'     2   11   37   28   26   22
                                                                 
     i        3
                                                                 
     8S6     34   35   43   42   41   45   47   48
                                                                 
     3s_h     7    9    8
                                                                 
     6S4     12   13   40   39   31   32
                                                                 
     6s_d     4   10   38   33   27   30
                                                                 


     Electric field:
     Dielectric constant
     Born effective charges in two ways 


     Atomic displacements:
     There are    2 irreducible representations

     Representation     1      3 modes -  To be done
     Irreps are as follows:

     mode #   1              mode #   2              mode #   3
     (  -0.57421   0.00000 ) (  -0.36974   0.00000 ) (  -0.18322   0.00000 ) 
     (  -0.36125   0.00000 ) (   0.29866   0.00000 ) (   0.52944   0.00000 ) 
     (   0.19945   0.00000 ) (  -0.52354   0.00000 ) (   0.43142   0.00000 ) 
     (   0.57421   0.00000 ) (   0.36974   0.00000 ) (   0.18322   0.00000 ) 
     (   0.36125   0.00000 ) (  -0.29866   0.00000 ) (  -0.52944   0.00000 ) 
     (  -0.19945   0.00000 ) (   0.52354   0.00000 ) (  -0.43142   0.00000 ) 

     Representation     2      3 modes -  To be done
     Irreps are as follows:

     mode #   4              mode #   5              mode #   6
     (  -0.14400   0.00000 ) (  -0.21483   0.00000 ) (  -0.65811   0.00000 ) 
     (   0.06326   0.00000 ) (   0.66530   0.00000 ) (  -0.23102   0.00000 ) 
     (  -0.68939   0.00000 ) (   0.10593   0.00000 ) (   0.11627   0.00000 ) 
     (  -0.14400   0.00000 ) (  -0.21483   0.00000 ) (  -0.65811   0.00000 ) 
     (   0.06326   0.00000 ) (   0.66530   0.00000 ) (  -0.23102   0.00000 ) 
     (  -0.68939   0.00000 ) (   0.10593   0.00000 ) (   0.11627   0.00000 ) 



     Alpha used in Ewald sum =   1.7000
     PHONON       :      0.18s CPU      1.65s WALL


     Electric Fields Calculation

      iter #   1 total cpu time :     2.2 secs   av.it.:   6.4
      thresh= 1.000E-02 alpha_mix =  0.700 |ddv_scf|^2 =  2.229E-07

      iter #   2 total cpu time :     2.6 secs   av.it.:  10.7
      thresh= 4.721E-05 alpha_mix =  0.700 |ddv_scf|^2 =  1.119E-08

      iter #   3 total cpu time :     3.0 secs   av.it.:  10.5
      thresh= 1.058E-05 alpha_mix =  0.700 |ddv_scf|^2 =  2.589E-10

      iter #   4 total cpu time :     3.3 secs   av.it.:  10.7
      thresh= 1.609E-06 alpha_mix =  0.700 |ddv_scf|^2 =  3.098E-12

      iter #   5 total cpu time :     3.6 secs   av.it.:  10.5
      thresh= 1.760E-07 alpha_mix =  0.700 |ddv_scf|^2 =  1.094E-15

      iter #   6 total cpu time :     3.9 secs   av.it.:   9.9
      thresh= 3.308E-09 alpha_mix =  0.700 |ddv_scf|^2 =  8.321E-17

      iter #   7 total cpu time :     4.2 secs   av.it.:   9.8
      thresh= 9.122E-10 alpha_mix =  0.700 |ddv_scf|^2 =  3.525E-20

     End of electric fields calculation

          Dielectric constant in cartesian axis 

          (      14.553706209      -0.000000000       0.000000000 )
          (      -0.000000000      14.553706209       0.000000000 )
          (       0.000000000       0.000000000      14.553706209 )

          Effective charges (d Force / dE) in cartesian axis without acoustic sum rule applied (asr)

           atom    1  Si    Mean Z*:       -0.09643
      Ex  (       -0.09643        0.00000        0.00000 )
      Ey  (        0.00000       -0.09643       -0.00000 )
      Ez  (        0.00000       -0.00000       -0.09643 )
           atom    2  Si    Mean Z*:       -0.09643
      Ex  (       -0.09643        0.00000        0.00000 )
      Ey  (        0.00000       -0.09643       -0.00000 )
      Ez  (        0.00000       -0.00000       -0.09643 )

          Effective charges Sum: Mean:       -0.19287
             -0.19287        0.00000        0.00000
              0.00000       -0.19287       -0.00000
              0.00000       -0.00000       -0.19287

          Effective charges (d Force / dE) in cartesian axis with asr applied: 
           atom    1  Si    Mean Z*:        0.00000
      E*x (        0.00000        0.00000        0.00000 )
      E*y (        0.00000        0.00000       -0.00000 )
      E*z (        0.00000       -0.00000        0.00000 )
           atom    2  Si    Mean Z*:       -0.00000
      E*x (       -0.00000       -0.00000       -0.00000 )
      E*y (       -0.00000       -0.00000        0.00000 )
      E*z (       -0.00000        0.00000       -0.00000 )


     Representation #   1 modes #   1   2   3

     Self-consistent Calculation

      iter #   1 total cpu time :     4.7 secs   av.it.:   5.6
      thresh= 1.000E-02 alpha_mix =  0.700 |ddv_scf|^2 =  3.167E-08

      iter #   2 total cpu time :     5.0 secs   av.it.:  10.8
      thresh= 1.780E-05 alpha_mix =  0.700 |ddv_scf|^2 =  7.135E-10

      iter #   3 total cpu time :     5.4 secs   av.it.:  10.8
      thresh= 2.671E-06 alpha_mix =  0.700 |ddv_scf|^2 =  2.676E-11

      iter #   4 total cpu time :     5.7 secs   av.it.:  10.6
      thresh= 5.173E-07 alpha_mix =  0.700 |ddv_scf|^2 =  9.068E-14

      iter #   5 total cpu time :     6.0 secs   av.it.:  10.9
      thresh= 3.011E-08 alpha_mix =  0.700 |ddv_scf|^2 =  6.306E-16

      iter #   6 total cpu time :     6.3 secs   av.it.:  10.6
      thresh= 2.511E-09 alpha_mix =  0.700 |ddv_scf|^2 =  4.296E-18

     End of self-consistent calculation

     Convergence has been achieved 


     Representation #   2 modes #   4   5   6

     Self-consistent Calculation

      iter #   1 total cpu time :     6.8 secs   av.it.:   5.9
      thresh= 1.000E-02 alpha_mix =  0.700 |ddv_scf|^2 =  2.269E-08

      iter #   2 total cpu time :     7.1 secs   av.it.:  11.1
      thresh= 1.506E-05 alpha_mix =  0.700 |ddv_scf|^2 =  8.529E-10

      iter #   3 total cpu time :     7.4 secs   av.it.:  11.0
      thresh= 2.920E-06 alpha_mix =  0.700 |ddv_scf|^2 =  3.803E-11

      iter #   4 total cpu time :     7.7 secs   av.it.:  11.1
      thresh= 6.167E-07 alpha_mix =  0.700 |ddv_scf|^2 =  9.215E-14

      iter #   5 total cpu time :     8.0 secs   av.it.:  11.2
      thresh= 3.036E-08 alpha_mix =  0.700 |ddv_scf|^2 =  4.115E-16

      iter #   6 total cpu time :     8.3 secs   av.it.:  10.7
      thresh= 2.029E-09 alpha_mix =  0.700 |ddv_scf|^2 =  1.115E-17

      iter #   7 total cpu time :     8.6 secs   av.it.:  10.6
      thresh= 3.339E-10 alpha_mix =  0.700 |ddv_scf|^2 =  1.809E-20

     End of self-consistent calculation

     Convergence has been achieved 
 
     Number of q in the star =    1
     List of q in the star:
          1   0.000000000   0.000000000   0.000000000

          Dielectric constant in cartesian axis 

          (      14.553706209      -0.000000000       0.000000000 )
          (      -0.000000000      14.553706209       0.000000000 )
          (       0.000000000       0.000000000      14.553706209 )

          Effective charges (d Force / dE) in cartesian axis without acoustic sum rule applied (asr)

           atom    1  Si    Mean Z*:       -0.09643
      Ex  (       -0.09643        0.00000        0.00000 )
      Ey  (        0.00000       -0.09643       -0.00000 )
      Ez  (        0.00000       -0.00000       -0.09643 )
           atom    2  Si    Mean Z*:       -0.09643
      Ex  (       -0.09643        0.00000        0.00000 )
      Ey  (        0.00000       -0.09643       -0.00000 )
      Ez  (        0.00000       -0.00000       -0.09643 )

          Effective charges Sum: Mean:       -0.19287
             -0.19287        0.00000        0.00000
              0.00000       -0.19287       -0.00000
              0.00000       -0.00000       -0.19287

          Effective charges (d Force / dE) in cartesian axis with asr applied: 
           atom    1  Si    Mean Z*:        0.00000
      E*x (        0.00000        0.00000        0.00000 )
      E*y (        0.00000        0.00000       -0.00000 )
      E*z (        0.00000       -0.00000        0.00000 )
           atom    2  Si    Mean Z*:       -0.00000
      E*x (       -0.00000       -0.00000       -0.00000 )
      E*y (       -0.00000       -0.00000        0.00000 )
      E*z (       -0.00000        0.00000       -0.00000 )

          Effective charges (d P / du) in cartesian axis 

           atom      1Si    
      Px  (       -0.09643        0.00000       -0.00000 )
      Py  (        0.00000       -0.09643       -0.00000 )
      Pz  (        0.00000        0.00000       -0.09643 )
           atom      2Si    
      Px  (       -0.09643        0.00000        0.00000 )
      Py  (        0.00000       -0.09643        0.00000 )
      Pz  (        0.00000        0.00000       -0.09643 )

     Diagonalizing the dynamical matrix

     q = (    0.000000000   0.000000000   0.000000000 ) 

 **************************************************************************
     freq (    1) =      -0.127852 [THz] =      -4.264671 [cm-1]
     freq (    2) =      -0.127852 [THz] =      -4.264671 [cm-1]
     freq (    3) =      -0.127852 [THz] =      -4.264671 [cm-1]
     freq (    4) =      15.282734 [THz] =     509.777131 [cm-1]
     freq (    5) =      15.282734 [THz] =     509.777131 [cm-1]
     freq (    6) =      15.282734 [THz] =     509.777131 [cm-1]
 **************************************************************************

     Mode symmetry, O_h (m-3m)  point group:

     freq (   1-   3) =         -4.3  [cm-1]   --> T_1u G_15  G_4- I  
     freq (   4-   6) =        509.8  [cm-1]   --> T_2g G_25' G_5+ R  

     Calculation of q =    0.5000000  -0.5000000   0.5000000
 
     Parallelization info
     --------------------
     sticks:   dense  smooth     PW     G-vecs:    dense   smooth      PW
     Min          36      36     13                  577      577     123
     Max          37      37     14                  580      580     126
     Sum         583     583    211                 9257     9257    1989
 
     Using Slab Decomposition
 

     Title: 
     Phonons on a uniform grid                                                  


     bravais-lattice index     =            2
     lattice parameter (alat)  =      10.2640  a.u.
     unit-cell volume          =     270.3273 (a.u.)^3
     number of atoms/cell      =            2
     number of atomic types    =            1
     number of electrons       =         8.00
     number of Kohn-Sham states=           16
     kinetic-energy cutoff     =      40.0000  Ry
     charge density cutoff     =     160.0000  Ry
     Exchange-correlation= PBESOL
                           (   1   4  10   8   0   0   0)

     celldm(1)=  10.264000  celldm(2)=   0.000000  celldm(3)=   0.000000
     celldm(4)=   0.000000  celldm(5)=   0.000000  celldm(6)=   0.000000

     crystal axes: (cart. coord. in units of alat)
               a(1) = (  -0.500000   0.000000   0.500000 )  
               a(2) = (   0.000000   0.500000   0.500000 )  
               a(3) = (  -0.500000   0.500000   0.000000 )  

     reciprocal axes: (cart. coord. in units 2 pi/alat)
               b(1) = ( -1.000000 -1.000000  1.000000 )  
               b(2) = (  1.000000  1.000000  1.000000 )  
               b(3) = ( -1.000000  1.000000 -1.000000 )  


     PseudoPot. # 1 for Si read from file:
     ../pseudo/Si_DOJO_PBEsol.upf
     MD5 check sum: 634e5fb0bdd2c4a07ca8312dc9ca950d
     Pseudo is Norm-conserving + core correction, Zval =  4.0
     Generated using ONCVPSP code by D. R. Hamann
     Using radial grid of 1528 points,  6 beta functions with: 
                l(1) =   0
                l(2) =   0
                l(3) =   1
                l(4) =   1
                l(5) =   2
                l(6) =   2

     atomic species   valence    mass     pseudopotential
     Si                4.00    28.08500     Si( 1.00)

     48 Sym. Ops., with inversion, found


                                    s                        frac. trans.

      isym =  1     identity                                     

 cryst.   s( 1) = (     1          0          0      )
                  (     0          1          0      )
                  (     0          0          1      )

 cart.    s( 1) = (  1.0000000  0.0000000  0.0000000 )
                  (  0.0000000  1.0000000  0.0000000 )
                  (  0.0000000  0.0000000  1.0000000 )


      isym =  2     180 deg rotation - cart. axis [-1,0,1]       

 cryst.   s( 2) = (     1          0          0      )    f =(  0.2500000 )
                  (     1         -1          0      )       (  0.2500000 )
                  (     1          0         -1      )       (  0.2500000 )

 cart.    s( 2) = (  0.0000000  0.0000000 -1.0000000 )    f =( -0.2500000 )
                  (  0.0000000 -1.0000000  0.0000000 )       (  0.2500000 )
                  ( -1.0000000  0.0000000  0.0000000 )       (  0.2500000 )


      isym =  3     inversion                                    

 cryst.   s( 3) = (    -1          0          0      )    f =(  0.2500000 )
                  (     0         -1          0      )       (  0.2500000 )
                  (     0          0         -1      )       (  0.2500000 )

 cart.    s( 3) = ( -1.0000000  0.0000000  0.0000000 )    f =( -0.2500000 )
                  (  0.0000000 -1.0000000  0.0000000 )       (  0.2500000 )
                  (  0.0000000  0.0000000 -1.0000000 )       (  0.2500000 )


      isym =  4     inv. 180 deg rotation - cart. axis [-1,0,1]  

 cryst.   s( 4) = (    -1          0          0      )
                  (    -1          1          0      )
                  (    -1          0          1      )

 cart.    s( 4) = (  0.0000000  0.0000000  1.0000000 )
                  (  0.0000000  1.0000000  0.0000000 )
                  (  1.0000000  0.0000000  0.0000000 )


      isym =  5     120 deg rotation - cart. axis [-1,1,-1]      

 cryst.   s( 5) = (    -1          1          0      )
                  (    -1          0          0      )
                  (    -1          0          1      )

 cart.    s( 5) = (  0.0000000  0.0000000  1.0000000 )
                  ( -1.0000000  0.0000000  0.0000000 )
                  (  0.0000000 -1.0000000  0.0000000 )


      isym =  6     180 deg rotation - cart. axis [1,1,0]        

 cryst.   s( 6) = (     0         -1          0      )    f =(  0.2500000 )
                  (    -1          0          0      )       (  0.2500000 )
                  (     0          0         -1      )       (  0.2500000 )

 cart.    s( 6) = (  0.0000000  1.0000000  0.0000000 )    f =( -0.2500000 )
                  (  1.0000000  0.0000000  0.0000000 )       (  0.2500000 )
                  (  0.0000000  0.0000000 -1.0000000 )       (  0.2500000 )


      isym =  7     inv. 180 deg rotation - cart. axis [1,1,0]   

 cryst.   s( 7) = (     0          1          0      )
                  (     1          0          0      )
                  (     0          0          1      )

 cart.    s( 7) = (  0.0000000 -1.0000000  0.0000000 )
                  ( -1.0000000  0.0000000  0.0000000 )
                  (  0.0000000  0.0000000  1.0000000 )


      isym =  8     180 deg rotation - cart. axis [0,1,1]        

 cryst.   s( 8) = (    -1          1          0      )    f =(  0.2500000 )
                  (     0          1          0      )       (  0.2500000 )
                  (     0          1         -1      )       (  0.2500000 )

 cart.    s( 8) = ( -1.0000000  0.0000000  0.0000000 )    f =( -0.2500000 )
                  (  0.0000000  0.0000000  1.0000000 )       (  0.2500000 )
                  (  0.0000000  1.0000000  0.0000000 )       (  0.2500000 )


      isym =  9     inv. 180 deg rotation - cart. axis [0,1,1]   

 cryst.   s( 9) = (     1         -1          0      )
                  (     0         -1          0      )
                  (     0         -1          1      )

 cart.    s( 9) = (  1.0000000  0.0000000  0.0000000 )
                  (  0.0000000  0.0000000 -1.0000000 )
                  (  0.0000000 -1.0000000  0.0000000 )


      isym = 10     inv. 120 deg rotation - cart. axis [1,-1,1]  

 cryst.   s(10) = (     0          1          0      )    f =(  0.2500000 )
                  (    -1          1          0      )       (  0.2500000 )
                  (     0          1         -1      )       (  0.2500000 )

 cart.    s(10) = (  0.0000000  1.0000000  0.0000000 )    f =( -0.2500000 )
                  (  0.0000000  0.0000000  1.0000000 )       (  0.2500000 )
                  ( -1.0000000  0.0000000  0.0000000 )       (  0.2500000 )


      isym = 11     inv. 120 deg rotation - cart. axis [-1,1,-1] 

 cryst.   s(11) = (     1         -1          0      )    f =(  0.2500000 )
                  (     1          0          0      )       (  0.2500000 )
                  (     1          0         -1      )       (  0.2500000 )

 cart.    s(11) = (  0.0000000  0.0000000 -1.0000000 )    f =( -0.2500000 )
                  (  1.0000000  0.0000000  0.0000000 )       (  0.2500000 )
                  (  0.0000000  1.0000000  0.0000000 )       (  0.2500000 )


      isym = 12     120 deg rotation - cart. axis [1,-1,1]       

 cryst.   s(12) = (     0         -1          0      )
                  (     1         -1          0      )
                  (     0         -1          1      )

 cart.    s(12) = (  0.0000000 -1.0000000  0.0000000 )
                  (  0.0000000  0.0000000 -1.0000000 )
                  (  1.0000000  0.0000000  0.0000000 )


      isym = 13     inv.  90 deg rotation - cart. axis [0,-1,0]  

 cryst.   s(13) = (     0          1         -1      )
                  (     0          0         -1      )
                  (     1          0         -1      )

 cart.    s(13) = (  0.0000000  0.0000000  1.0000000 )
                  (  0.0000000 -1.0000000  0.0000000 )
                  ( -1.0000000  0.0000000  0.0000000 )


      isym = 14     180 deg rotation - cart. axis [0,1,0]        

 cryst.   s(14) = (    -1          0          0      )
                  (    -1          0          1      )
                  (    -1          1          0      )

 cart.    s(14) = ( -1.0000000  0.0000000  0.0000000 )
                  (  0.0000000  1.0000000  0.0000000 )
                  (  0.0000000  0.0000000 -1.0000000 )


      isym = 15      90 deg rotation - cart. axis [0,1,0]        

 cryst.   s(15) = (     0          1         -1      )    f =(  0.2500000 )
                  (    -1          1          0      )       (  0.2500000 )
                  (     0          1          0      )       (  0.2500000 )

 cart.    s(15) = (  0.0000000  0.0000000  1.0000000 )    f =( -0.2500000 )
                  (  0.0000000  1.0000000  0.0000000 )       (  0.2500000 )
                  ( -1.0000000  0.0000000  0.0000000 )       (  0.2500000 )


      isym = 16      90 deg rotation - cart. axis [0,-1,0]       

 cryst.   s(16) = (     0         -1          1      )    f =(  0.2500000 )
                  (     0          0          1      )       (  0.2500000 )
                  (    -1          0          1      )       (  0.2500000 )

 cart.    s(16) = (  0.0000000  0.0000000 -1.0000000 )    f =( -0.2500000 )
                  (  0.0000000  1.0000000  0.0000000 )       (  0.2500000 )
                  (  1.0000000  0.0000000  0.0000000 )       (  0.2500000 )


      isym = 17     120 deg rotation - cart. axis [-1,-1,-1]     

 cryst.   s(17) = (    -1          0          1      )
                  (    -1          1          0      )
                  (    -1          0          0      )

 cart.    s(17) = (  0.0000000  1.0000000  0.0000000 )
                  (  0.0000000  0.0000000  1.0000000 )
                  (  1.0000000  0.0000000  0.0000000 )


      isym = 18     120 deg rotation - cart. axis [-1,1,1]       

 cryst.   s(18) = (     0          1          0      )
                  (     0          0          1      )
                  (     1          0          0      )

 cart.    s(18) = (  0.0000000 -1.0000000  0.0000000 )
                  (  0.0000000  0.0000000  1.0000000 )
                  ( -1.0000000  0.0000000  0.0000000 )


      isym = 19     120 deg rotation - cart. axis [1,1,-1]       

 cryst.   s(19) = (     1          0         -1      )
                  (     0          0         -1      )
                  (     0          1         -1      )

 cart.    s(19) = (  0.0000000  1.0000000  0.0000000 )
                  (  0.0000000  0.0000000 -1.0000000 )
                  ( -1.0000000  0.0000000  0.0000000 )


      isym = 20     180 deg rotation - cart. axis [1,0,0]        

 cryst.   s(20) = (     0         -1          1      )
                  (     0         -1          0      )
                  (     1         -1          0      )

 cart.    s(20) = (  1.0000000  0.0000000  0.0000000 )
                  (  0.0000000 -1.0000000  0.0000000 )
                  (  0.0000000  0.0000000 -1.0000000 )


      isym = 21     120 deg rotation - cart. axis [1,1,1]        

 cryst.   s(21) = (     0          0         -1      )
                  (     0          1         -1      )
                  (     1          0         -1      )

 cart.    s(21) = (  0.0000000  0.0000000  1.0000000 )
                  (  1.0000000  0.0000000  0.0000000 )
                  (  0.0000000  1.0000000  0.0000000 )


      isym = 22     180 deg rotation - cart. axis [1,-1,0]       

 cryst.   s(22) = (    -1          0          1      )    f =(  0.2500000 )
                  (     0         -1          1      )       (  0.2500000 )
                  (     0          0          1      )       (  0.2500000 )

 cart.    s(22) = (  0.0000000 -1.0000000  0.0000000 )    f =( -0.2500000 )
                  ( -1.0000000  0.0000000  0.0000000 )       (  0.2500000 )
                  (  0.0000000  0.0000000 -1.0000000 )       (  0.2500000 )


      isym = 23     120 deg rotation - cart. axis [1,-1,-1]      

 cryst.   s(23) = (     0          0          1      )
                  (     1          0          0      )
                  (     0          1          0      )

 cart.    s(23) = (  0.0000000  0.0000000 -1.0000000 )
                  ( -1.0000000  0.0000000  0.0000000 )
                  (  0.0000000  1.0000000  0.0000000 )


      isym = 24     120 deg rotation - cart. axis [-1,-1,1]      

 cryst.   s(24) = (     1         -1          0      )
                  (     0         -1          1      )
                  (     0         -1          0      )

 cart.    s(24) = (  0.0000000  0.0000000 -1.0000000 )
                  (  1.0000000  0.0000000  0.0000000 )
                  (  0.0000000 -1.0000000  0.0000000 )


      isym = 25      90 deg rotation - cart. axis [0,0,-1]       

 cryst.   s(25) = (     0          1          0      )    f =(  0.2500000 )
                  (     0          1         -1      )       (  0.2500000 )
                  (    -1          1          0      )       (  0.2500000 )

 cart.    s(25) = (  0.0000000  1.0000000  0.0000000 )    f =( -0.2500000 )
                  ( -1.0000000  0.0000000  0.0000000 )       (  0.2500000 )
                  (  0.0000000  0.0000000  1.0000000 )       (  0.2500000 )


      isym = 26     180 deg rotation - cart. axis [0,0,1]        

 cryst.   s(26) = (     0          1         -1      )
                  (     1          0         -1      )
                  (     0          0         -1      )

 cart.    s(26) = ( -1.0000000  0.0000000  0.0000000 )
                  (  0.0000000 -1.0000000  0.0000000 )
                  (  0.0000000  0.0000000  1.0000000 )


      isym = 27     inv. 180 deg rotation - cart. axis [0,0,1]   

 cryst.   s(27) = (     0         -1          1      )    f =(  0.2500000 )
                  (    -1          0          1      )       (  0.2500000 )
                  (     0          0          1      )       (  0.2500000 )

 cart.    s(27) = (  1.0000000  0.0000000  0.0000000 )    f =( -0.2500000 )
                  (  0.0000000  1.0000000  0.0000000 )       (  0.2500000 )
                  (  0.0000000  0.0000000 -1.0000000 )       (  0.2500000 )


      isym = 28     inv. 180 deg rotation - cart. axis [0,1,0]   

 cryst.   s(28) = (     1          0          0      )    f =(  0.2500000 )
                  (     1          0         -1      )       (  0.2500000 )
                  (     1         -1          0      )       (  0.2500000 )

 cart.    s(28) = (  1.0000000  0.0000000  0.0000000 )    f =( -0.2500000 )
                  (  0.0000000 -1.0000000  0.0000000 )       (  0.2500000 )
                  (  0.0000000  0.0000000  1.0000000 )       (  0.2500000 )


      isym = 29      90 deg rotation - cart. axis [0,0,1]        

 cryst.   s(29) = (     1          0         -1      )    f =(  0.2500000 )
                  (     1          0          0      )       (  0.2500000 )
                  (     1         -1          0      )       (  0.2500000 )

 cart.    s(29) = (  0.0000000 -1.0000000  0.0000000 )    f =( -0.2500000 )
                  (  1.0000000  0.0000000  0.0000000 )       (  0.2500000 )
                  (  0.0000000  0.0000000  1.0000000 )       (  0.2500000 )


      isym = 30     inv. 180 deg rotation - cart. axis [1,-1,0]  

 cryst.   s(30) = (     1          0         -1      )
                  (     0          1         -1      )
                  (     0          0         -1      )

 cart.    s(30) = (  0.0000000  1.0000000  0.0000000 )
                  (  1.0000000  0.0000000  0.0000000 )
                  (  0.0000000  0.0000000  1.0000000 )


      isym = 31     inv.  90 deg rotation - cart. axis [0,0,-1]  

 cryst.   s(31) = (     0         -1          0      )
                  (     0         -1          1      )
                  (     1         -1          0      )

 cart.    s(31) = (  0.0000000 -1.0000000  0.0000000 )
                  (  1.0000000  0.0000000  0.0000000 )
                  (  0.0000000  0.0000000 -1.0000000 )


      isym = 32     inv.  90 deg rotation - cart. axis [0,0,1]   

 cryst.   s(32) = (    -1          0          1      )
                  (    -1          0          0      )
                  (    -1          1          0      )

 cart.    s(32) = (  0.0000000  1.0000000  0.0000000 )
                  ( -1.0000000  0.0000000  0.0000000 )
                  (  0.0000000  0.0000000 -1.0000000 )


      isym = 33     inv. 180 deg rotation - cart. axis [1,0,0]   

 cryst.   s(33) = (     0          1         -1      )    f =(  0.2500000 )
                  (     0          1          0      )       (  0.2500000 )
                  (    -1          1          0      )       (  0.2500000 )

 cart.    s(33) = ( -1.0000000  0.0000000  0.0000000 )    f =( -0.2500000 )
                  (  0.0000000  1.0000000  0.0000000 )       (  0.2500000 )
                  (  0.0000000  0.0000000  1.0000000 )       (  0.2500000 )


      isym = 34     inv. 180 deg rotation - cart. axis [1,0,1]   

 cryst.   s(34) = (     1          0          0      )
                  (     0          0          1      )
                  (     0          1          0      )

 cart.    s(34) = (  0.0000000  0.0000000 -1.0000000 )
                  (  0.0000000  1.0000000  0.0000000 )
                  ( -1.0000000  0.0000000  0.0000000 )


      isym = 35     180 deg rotation - cart. axis [1,0,1]        

 cryst.   s(35) = (    -1          0          0      )    f =(  0.2500000 )
                  (     0          0         -1      )       (  0.2500000 )
                  (     0         -1          0      )       (  0.2500000 )

 cart.    s(35) = (  0.0000000  0.0000000  1.0000000 )    f =( -0.2500000 )
                  (  0.0000000 -1.0000000  0.0000000 )       (  0.2500000 )
                  (  1.0000000  0.0000000  0.0000000 )       (  0.2500000 )


      isym = 36     inv.  90 deg rotation - cart. axis [0,1,0]   

 cryst.   s(36) = (     0         -1          1      )
                  (     1         -1          0      )
                  (     0         -1          0      )

 cart.    s(36) = (  0.0000000  0.0000000 -1.0000000 )
                  (  0.0000000 -1.0000000  0.0000000 )
                  (  1.0000000  0.0000000  0.0000000 )


      isym = 37     180 deg rotation - cart. axis [0,1,-1]       

 cryst.   s(37) = (     0          0         -1      )    f =(  0.2500000 )
                  (     0         -1          0      )       (  0.2500000 )
                  (    -1          0          0      )       (  0.2500000 )

 cart.    s(37) = ( -1.0000000  0.0000000  0.0000000 )    f =( -0.2500000 )
                  (  0.0000000  0.0000000 -1.0000000 )       (  0.2500000 )
                  (  0.0000000 -1.0000000  0.0000000 )       (  0.2500000 )


      isym = 38     inv. 180 deg rotation - cart. axis [0,1,-1]  

 cryst.   s(38) = (     0          0          1      )
                  (     0          1          0      )
                  (     1          0          0      )

 cart.    s(38) = (  1.0000000  0.0000000  0.0000000 )
                  (  0.0000000  0.0000000  1.0000000 )
                  (  0.0000000  1.0000000  0.0000000 )


      isym = 39     inv.  90 deg rotation - cart. axis [-1,0,0]  

 cryst.   s(39) = (     0          0         -1      )
                  (     1          0         -1      )
                  (     0          1         -1      )

 cart.    s(39) = ( -1.0000000  0.0000000  0.0000000 )
                  (  0.0000000  0.0000000 -1.0000000 )
                  (  0.0000000  1.0000000  0.0000000 )


      isym = 40     inv.  90 deg rotation - cart. axis [1,0,0]   

 cryst.   s(40) = (    -1          1          0      )
                  (    -1          0          1      )
                  (    -1          0          0      )

 cart.    s(40) = ( -1.0000000  0.0000000  0.0000000 )
                  (  0.0000000  0.0000000  1.0000000 )
                  (  0.0000000 -1.0000000  0.0000000 )


      isym = 41     inv. 120 deg rotation - cart. axis [-1,-1,-1]

 cryst.   s(41) = (     1          0         -1      )    f =(  0.2500000 )
                  (     1         -1          0      )       (  0.2500000 )
                  (     1          0          0      )       (  0.2500000 )

 cart.    s(41) = (  0.0000000 -1.0000000  0.0000000 )    f =( -0.2500000 )
                  (  0.0000000  0.0000000 -1.0000000 )       (  0.2500000 )
                  ( -1.0000000  0.0000000  0.0000000 )       (  0.2500000 )


      isym = 42     inv. 120 deg rotation - cart. axis [-1,1,1]  

 cryst.   s(42) = (     0         -1          0      )    f =(  0.2500000 )
                  (     0          0         -1      )       (  0.2500000 )
                  (    -1          0          0      )       (  0.2500000 )

 cart.    s(42) = (  0.0000000  1.0000000  0.0000000 )    f =( -0.2500000 )
                  (  0.0000000  0.0000000 -1.0000000 )       (  0.2500000 )
                  (  1.0000000  0.0000000  0.0000000 )       (  0.2500000 )


      isym = 43     inv. 120 deg rotation - cart. axis [1,1,-1]  

 cryst.   s(43) = (    -1          0          1      )    f =(  0.2500000 )
                  (     0          0          1      )       (  0.2500000 )
                  (     0         -1          1      )       (  0.2500000 )

 cart.    s(43) = (  0.0000000 -1.0000000  0.0000000 )    f =( -0.2500000 )
                  (  0.0000000  0.0000000  1.0000000 )       (  0.2500000 )
                  (  1.0000000  0.0000000  0.0000000 )       (  0.2500000 )


      isym = 44      90 deg rotation - cart. axis [-1,0,0]       

 cryst.   s(44) = (     0          0          1      )    f =(  0.2500000 )
                  (    -1          0          1      )       (  0.2500000 )
                  (     0         -1          1      )       (  0.2500000 )

 cart.    s(44) = (  1.0000000  0.0000000  0.0000000 )    f =( -0.2500000 )
                  (  0.0000000  0.0000000  1.0000000 )       (  0.2500000 )
                  (  0.0000000 -1.0000000  0.0000000 )       (  0.2500000 )


      isym = 45     inv. 120 deg rotation - cart. axis [1,1,1]   

 cryst.   s(45) = (     0          0          1      )    f =(  0.2500000 )
                  (     0         -1          1      )       (  0.2500000 )
                  (    -1          0          1      )       (  0.2500000 )

 cart.    s(45) = (  0.0000000  0.0000000 -1.0000000 )    f =( -0.2500000 )
                  ( -1.0000000  0.0000000  0.0000000 )       (  0.2500000 )
                  (  0.0000000 -1.0000000  0.0000000 )       (  0.2500000 )


      isym = 46      90 deg rotation - cart. axis [1,0,0]        

 cryst.   s(46) = (     1         -1          0      )    f =(  0.2500000 )
                  (     1          0         -1      )       (  0.2500000 )
                  (     1          0          0      )       (  0.2500000 )

 cart.    s(46) = (  1.0000000  0.0000000  0.0000000 )    f =( -0.2500000 )
                  (  0.0000000  0.0000000 -1.0000000 )       (  0.2500000 )
                  (  0.0000000  1.0000000  0.0000000 )       (  0.2500000 )


      isym = 47     inv. 120 deg rotation - cart. axis [1,-1,-1] 

 cryst.   s(47) = (     0          0         -1      )    f =(  0.2500000 )
                  (    -1          0          0      )       (  0.2500000 )
                  (     0         -1          0      )       (  0.2500000 )

 cart.    s(47) = (  0.0000000  0.0000000  1.0000000 )    f =( -0.2500000 )
                  (  1.0000000  0.0000000  0.0000000 )       (  0.2500000 )
                  (  0.0000000 -1.0000000  0.0000000 )       (  0.2500000 )


      isym = 48     inv. 120 deg rotation - cart. axis [-1,-1,1] 

 cryst.   s(48) = (    -1          1          0      )    f =(  0.2500000 )
                  (     0          1         -1      )       (  0.2500000 )
                  (     0          1          0      )       (  0.2500000 )

 cart.    s(48) = (  0.0000000  0.0000000  1.0000000 )    f =( -0.2500000 )
                  ( -1.0000000  0.0000000  0.0000000 )       (  0.2500000 )
                  (  0.0000000  1.0000000  0.0000000 )       (  0.2500000 )


     point group O_h (m-3m) 
     there are 10 classes
     the character table:

       E     8C3   3C2   6C4   6C2'  i     8S6   3s_h  6S4   6s_d 
A_1g   1.00  1.00  1.00  1.00  1.00  1.00  1.00  1.00  1.00  1.00
A_2g   1.00  1.00  1.00 -1.00 -1.00  1.00  1.00  1.00 -1.00 -1.00
E_g    2.00 -1.00  2.00  0.00  0.00  2.00 -1.00  2.00  0.00  0.00
T_1g   3.00  0.00 -1.00  1.00 -1.00  3.00  0.00 -1.00  1.00 -1.00
T_2g   3.00  0.00 -1.00 -1.00  1.00  3.00  0.00 -1.00 -1.00  1.00
A_1u   1.00  1.00  1.00  1.00  1.00 -1.00 -1.00 -1.00 -1.00 -1.00
A_2u   1.00  1.00  1.00 -1.00 -1.00 -1.00 -1.00 -1.00  1.00  1.00
E_u    2.00 -1.00  2.00  0.00  0.00 -2.00  1.00 -2.00  0.00  0.00
T_1u   3.00  0.00 -1.00  1.00 -1.00 -3.00  0.00  1.00 -1.00  1.00
T_2u   3.00  0.00 -1.00 -1.00  1.00 -3.00  0.00  1.00  1.00 -1.00

     the symmetry operations in each class and the name of the first element:

     E        1
          identity                                               
     8C3      5   12   19   21   18   23   24   17
          120 deg rotation - cart. axis [-1,1,-1]                
     3C2     14   26   20
          180 deg rotation - cart. axis [0,1,0]                  
     6C4     15   16   25   46   29   44
           90 deg rotation - cart. axis [0,1,0]                  
     6C2'     2    6    8   35   37   22
          180 deg rotation - cart. axis [-1,0,1]                 
     i        3
          inversion                                              
     8S6     10   11   48   41   47   42   43   45
          inv. 120 deg rotation - cart. axis [1,-1,1]            
     3s_h    27   33   28
          inv. 180 deg rotation - cart. axis [0,0,1]             
     6S4     13   36   32   39   31   40
          inv.  90 deg rotation - cart. axis [0,-1,0]            
     6s_d     4    7    9   34   38   30
          inv. 180 deg rotation - cart. axis [-1,0,1]            

   Cartesian axes

     site n.     atom                  positions (alat units)
         1        Si     tau(   1) = (   0.0000000   0.0000000   0.0000000  )
         2        Si     tau(   2) = (   0.2500000   0.2500000   0.2500000  )

   Crystallographic axes

     site n.     atom                  positions (cryst. coord.)
         1        Si     tau(   1) = (  0.0000000  0.0000000  0.0000000  )
         2        Si     tau(   2) = ( -0.2500000  0.7500000 -0.2500000  )

     number of k points=   130
                       cart. coord. in units 2pi/alat
        k(    1) = (   0.0000000   0.0000000   0.0000000), wk =   0.0039062
        k(    2) = (   0.5000000  -0.5000000   0.5000000), wk =   0.0000000
        k(    3) = (  -0.1250000   0.1250000  -0.1250000), wk =   0.0078125
        k(    4) = (   0.3750000  -0.3750000   0.3750000), wk =   0.0000000
        k(    5) = (  -0.2500000   0.2500000  -0.2500000), wk =   0.0078125
        k(    6) = (   0.2500000  -0.2500000   0.2500000), wk =   0.0000000
        k(    7) = (  -0.3750000   0.3750000  -0.3750000), wk =   0.0078125
        k(    8) = (   0.1250000  -0.1250000   0.1250000), wk =   0.0000000
        k(    9) = (   0.5000000  -0.5000000   0.5000000), wk =   0.0039062
        k(   10) = (   1.0000000  -1.0000000   1.0000000), wk =   0.0000000
        k(   11) = (   0.0000000   0.2500000   0.0000000), wk =   0.0234375
        k(   12) = (   0.5000000  -0.2500000   0.5000000), wk =   0.0000000
        k(   13) = (  -0.1250000   0.3750000  -0.1250000), wk =   0.0234375
        k(   14) = (   0.3750000  -0.1250000   0.3750000), wk =   0.0000000
        k(   15) = (  -0.2500000   0.5000000  -0.2500000), wk =   0.0234375
        k(   16) = (   0.2500000   0.0000000   0.2500000), wk =   0.0000000
        k(   17) = (   0.6250000  -0.3750000   0.6250000), wk =   0.0234375
        k(   18) = (   1.1250000  -0.8750000   1.1250000), wk =   0.0000000
        k(   19) = (   0.5000000  -0.2500000   0.5000000), wk =   0.0234375
        k(   20) = (   1.0000000  -0.7500000   1.0000000), wk =   0.0000000
        k(   21) = (   0.3750000  -0.1250000   0.3750000), wk =   0.0234375
        k(   22) = (   0.8750000  -0.6250000   0.8750000), wk =   0.0000000
        k(   23) = (   0.2500000   0.0000000   0.2500000), wk =   0.0234375
        k(   24) = (   0.7500000  -0.5000000   0.7500000), wk =   0.0000000
        k(   25) = (   0.0000000   0.5000000   0.0000000), wk =   0.0234375
        k(   26) = (   0.5000000   0.0000000   0.5000000), wk =   0.0000000
        k(   27) = (  -0.1250000   0.6250000  -0.1250000), wk =   0.0234375
        k(   28) = (   0.3750000   0.1250000   0.3750000), wk =   0.0000000
        k(   29) = (   0.7500000  -0.2500000   0.7500000), wk =   0.0234375
        k(   30) = (   1.2500000  -0.7500000   1.2500000), wk =   0.0000000
        k(   31) = (   0.6250000  -0.1250000   0.6250000), wk =   0.0234375
        k(   32) = (   1.1250000  -0.6250000   1.1250000), wk =   0.0000000
        k(   33) = (   0.5000000   0.0000000   0.5000000), wk =   0.0234375
        k(   34) = (   1.0000000  -0.5000000   1.0000000), wk =   0.0000000
        k(   35) = (   0.0000000   0.7500000   0.0000000), wk =   0.0234375
        k(   36) = (   0.5000000   0.2500000   0.5000000), wk =   0.0000000
        k(   37) = (   0.8750000  -0.1250000   0.8750000), wk =   0.0234375
        k(   38) = (   1.3750000  -0.6250000   1.3750000), wk =   0.0000000
        k(   39) = (   0.7500000   0.0000000   0.7500000), wk =   0.0234375
        k(   40) = (   1.2500000  -0.5000000   1.2500000), wk =   0.0000000
        k(   41) = (   0.0000000  -1.0000000   0.0000000), wk =   0.0117188
        k(   42) = (   0.5000000  -1.5000000   0.5000000), wk =   0.0000000
[...]
        k(   18) = (   0.0000000  -0.3750000  -1.0000000), wk =   0.0000000
        k(   19) = (   0.0000000   0.1250000  -0.3750000), wk =   0.0312500
        k(   20) = (   0.0000000  -0.3750000  -0.8750000), wk =   0.0000000
        k(   21) = (   0.0000000   0.1250000  -0.2500000), wk =   0.0312500
        k(   22) = (   0.0000000  -0.3750000  -0.7500000), wk =   0.0000000
        k(   23) = (   0.0000000   0.1250000  -0.1250000), wk =   0.0156250
        k(   24) = (   0.0000000  -0.3750000  -0.6250000), wk =   0.0000000
        k(   25) = (   0.0000000   0.2500000   0.2500000), wk =   0.0078125
        k(   26) = (   0.0000000  -0.2500000  -0.2500000), wk =   0.0000000
        k(   27) = (   0.0000000   0.2500000   0.3750000), wk =   0.0312500
        k(   28) = (   0.0000000  -0.2500000  -0.1250000), wk =   0.0000000
        k(   29) = (   0.0000000   0.2500000  -0.5000000), wk =   0.0312500
        k(   30) = (   0.0000000  -0.2500000  -1.0000000), wk =   0.0000000
        k(   31) = (   0.0000000   0.2500000  -0.3750000), wk =   0.0312500
        k(   32) = (   0.0000000  -0.2500000  -0.8750000), wk =   0.0000000
        k(   33) = (   0.0000000   0.2500000  -0.2500000), wk =   0.0156250
        k(   34) = (   0.0000000  -0.2500000  -0.7500000), wk =   0.0000000
        k(   35) = (   0.0000000   0.3750000   0.3750000), wk =   0.0078125
        k(   36) = (   0.0000000  -0.1250000  -0.1250000), wk =   0.0000000
        k(   37) = (   0.0000000   0.3750000  -0.5000000), wk =   0.0312500
        k(   38) = (   0.0000000  -0.1250000  -1.0000000), wk =   0.0000000
        k(   39) = (   0.0000000   0.3750000  -0.3750000), wk =   0.0156250
        k(   40) = (   0.0000000  -0.1250000  -0.8750000), wk =   0.0000000
        k(   41) = (   0.0000000  -0.5000000  -0.5000000), wk =   0.0039062
        k(   42) = (   0.0000000  -1.0000000  -1.0000000), wk =   0.0000000
        k(   43) = (   0.1250000   0.2500000   0.3750000), wk =   0.0312500
        k(   44) = (   0.1250000  -0.2500000  -0.1250000), wk =   0.0000000
        k(   45) = (   0.1250000   0.2500000  -0.5000000), wk =   0.0625000
        k(   46) = (   0.1250000  -0.2500000  -1.0000000), wk =   0.0000000
        k(   47) = (   0.1250000   0.2500000  -0.3750000), wk =   0.0625000
        k(   48) = (   0.1250000  -0.2500000  -0.8750000), wk =   0.0000000
        k(   49) = (   0.1250000   0.3750000  -0.5000000), wk =   0.0312500
        k(   50) = (   0.1250000  -0.1250000  -1.0000000), wk =   0.0000000
        k(   51) = (   0.1250000   0.3750000  -0.3750000), wk =   0.0625000
        k(   52) = (   0.1250000  -0.1250000  -0.8750000), wk =   0.0000000
        k(   53) = (   0.1250000   0.3750000  -0.2500000), wk =   0.0312500
        k(   54) = (   0.1250000  -0.1250000  -0.7500000), wk =   0.0000000
        k(   55) = (   0.1250000  -0.5000000  -0.3750000), wk =   0.0156250
        k(   56) = (   0.1250000  -1.0000000  -0.8750000), wk =   0.0000000
        k(   57) = (   0.2500000  -0.5000000  -0.2500000), wk =   0.0156250
        k(   58) = (   0.2500000  -1.0000000  -0.7500000), wk =   0.0000000
        k(   59) = (  -0.1250000   0.0000000  -0.1250000), wk =   0.0156250
        k(   60) = (  -0.1250000  -0.5000000  -0.6250000), wk =   0.0000000
        k(   61) = (  -0.2500000  -0.1250000  -0.2500000), wk =   0.0625000
        k(   62) = (  -0.2500000  -0.6250000  -0.7500000), wk =   0.0000000
        k(   63) = (  -0.3750000  -0.2500000  -0.3750000), wk =   0.0625000
        k(   64) = (  -0.3750000  -0.7500000  -0.8750000), wk =   0.0000000
        k(   65) = (   0.5000000   0.6250000   0.5000000), wk =   0.0625000
        k(   66) = (   0.5000000   0.1250000   0.0000000), wk =   0.0000000
        k(   67) = (   0.3750000   0.5000000   0.3750000), wk =   0.0625000
        k(   68) = (   0.3750000   0.0000000  -0.1250000), wk =   0.0000000
        k(   69) = (   0.2500000   0.3750000   0.2500000), wk =   0.0625000
        k(   70) = (   0.2500000  -0.1250000  -0.2500000), wk =   0.0000000
        k(   71) = (   0.1250000   0.2500000   0.1250000), wk =   0.0312500
        k(   72) = (   0.1250000  -0.2500000  -0.3750000), wk =   0.0000000
        k(   73) = (  -0.2500000   0.0000000  -0.2500000), wk =   0.0156250
        k(   74) = (  -0.2500000  -0.5000000  -0.7500000), wk =   0.0000000
        k(   75) = (  -0.3750000  -0.1250000  -0.3750000), wk =   0.0625000
        k(   76) = (  -0.3750000  -0.6250000  -0.8750000), wk =   0.0000000
        k(   77) = (   0.5000000   0.7500000   0.5000000), wk =   0.0625000
        k(   78) = (   0.5000000   0.2500000   0.0000000), wk =   0.0000000
        k(   79) = (   0.3750000   0.6250000   0.3750000), wk =   0.0625000
        k(   80) = (   0.3750000   0.1250000  -0.1250000), wk =   0.0000000
        k(   81) = (   0.2500000   0.5000000   0.2500000), wk =   0.0312500
        k(   82) = (   0.2500000   0.0000000  -0.2500000), wk =   0.0000000
        k(   83) = (  -0.3750000   0.0000000  -0.3750000), wk =   0.0156250
        k(   84) = (  -0.3750000  -0.5000000  -0.8750000), wk =   0.0000000
        k(   85) = (   0.5000000   0.8750000   0.5000000), wk =   0.0625000
        k(   86) = (   0.5000000   0.3750000   0.0000000), wk =   0.0000000
        k(   87) = (   0.3750000   0.7500000   0.3750000), wk =   0.0312500
        k(   88) = (   0.3750000   0.2500000  -0.1250000), wk =   0.0000000
        k(   89) = (   0.5000000   0.0000000   0.5000000), wk =   0.0078125
        k(   90) = (   0.5000000  -0.5000000   0.0000000), wk =   0.0000000
        k(   91) = (  -0.3750000  -0.1250000  -0.2500000), wk =   0.0312500
        k(   92) = (  -0.3750000  -0.6250000  -0.7500000), wk =   0.0000000
        k(   93) = (   0.2500000   0.1250000  -0.1250000), wk =   0.0312500
        k(   94) = (   0.2500000  -0.3750000  -0.6250000), wk =   0.0000000
        k(   95) = (   0.5000000   0.7500000   0.6250000), wk =   0.0625000
        k(   96) = (   0.5000000   0.2500000   0.1250000), wk =   0.0000000
        k(   97) = (  -0.6250000   0.1250000  -0.1250000), wk =   0.0625000
        k(   98) = (  -0.6250000  -0.3750000  -0.6250000), wk =   0.0000000
        k(   99) = (  -0.5000000   0.1250000  -0.1250000), wk =   0.0312500
        k(  100) = (  -0.5000000  -0.3750000  -0.6250000), wk =   0.0000000
        k(  101) = (   0.5000000   0.8750000   0.6250000), wk =   0.0312500
        k(  102) = (   0.5000000   0.3750000   0.1250000), wk =   0.0000000
        k(  103) = (  -0.6250000   0.2500000  -0.1250000), wk =   0.0312500
        k(  104) = (  -0.6250000  -0.2500000  -0.6250000), wk =   0.0000000
        k(  105) = (   0.3750000   0.7500000   0.5000000), wk =   0.0625000
        k(  106) = (   0.3750000   0.2500000   0.0000000), wk =   0.0000000
        k(  107) = (  -0.5000000   0.2500000  -0.1250000), wk =   0.0625000
        k(  108) = (  -0.5000000  -0.2500000  -0.6250000), wk =   0.0000000
        k(  109) = (   0.2500000   0.6250000   0.3750000), wk =   0.0312500
        k(  110) = (   0.2500000   0.1250000  -0.1250000), wk =   0.0000000
        k(  111) = (  -0.3750000   0.2500000  -0.1250000), wk =   0.0312500
        k(  112) = (  -0.3750000  -0.2500000  -0.6250000), wk =   0.0000000
        k(  113) = (   0.3750000  -0.1250000   0.5000000), wk =   0.0156250
        k(  114) = (   0.3750000  -0.6250000   0.0000000), wk =   0.0000000
        k(  115) = (  -0.5000000  -0.6250000  -0.1250000), wk =   0.0156250
        k(  116) = (  -0.5000000  -1.1250000  -0.6250000), wk =   0.0000000
        k(  117) = (  -0.5000000  -0.7500000  -0.2500000), wk =   0.0078125
        k(  118) = (  -0.5000000  -1.2500000  -0.7500000), wk =   0.0000000

     PseudoPot. # 1 for Si read from file:
     ../pseudo/Si_DOJO_PBEsol.upf
     MD5 check sum: 634e5fb0bdd2c4a07ca8312dc9ca950d
     Pseudo is Norm-conserving + core correction, Zval =  4.0
     Generated using ONCVPSP code by D. R. Hamann
     Using radial grid of 1528 points,  6 beta functions with: 
                l(1) =   0
                l(2) =   0
                l(3) =   1
                l(4) =   1
                l(5) =   2
                l(6) =   2


     Atomic displacements:
     There are    3 irreducible representations

     Representation     1      2 modes -  To be done
     Irreps are as follows:

           mode #   1                           mode #   2
           (  -0.25066   0.00000   )            (  -0.66119  -0.00000   ) 
           (   0.00000  -0.00000   )            (  -0.00000   0.00000   ) 
           (  -0.66119   0.00000   )            (   0.25066  -0.00000   ) 
           (   0.66119  -0.00000   )            (  -0.25066   0.00000   ) 
           (  -0.00000   0.00000   )            (   0.00000   0.00000   ) 
           (   0.25066   0.00000   )            (   0.66119   0.00000   ) 

     Representation     2      2 modes -  To be done
     Irreps are as follows:

           mode #   3                           mode #   4
           (   0.00000   0.00000   )            (   0.00000  -0.00000   ) 
           (  -0.99403   0.00000   )            (  -0.10914  -0.00000   ) 
           (   0.00000   0.00000   )            (  -0.00000  -0.00000   ) 
           (   0.00000  -0.00000   )            (   0.00000   0.00000   ) 
           (  -0.10914  -0.00000   )            (   0.99403   0.00000   ) 
           (   0.00000   0.00000   )            (  -0.00000   0.00000   ) 

     Representation     3      2 modes -  To be done
     Irreps are as follows:

           mode #   5                           mode #   6
           (  -0.66137   0.00000   )            (  -0.25017   0.00000   ) 
           (   0.00000  -0.00000   )            (  -0.00000   0.00000   ) 
           (   0.25017  -0.00000   )            (  -0.66137   0.00000   ) 
           (   0.25017  -0.00000   )            (  -0.66137   0.00000   ) 
           (   0.00000  -0.00000   )            (  -0.00000  -0.00000   ) 
           (  -0.66137  -0.00000   )            (  -0.25017  -0.00000   ) 



     Alpha used in Ewald sum =   1.7000
     PHONON       :     21.24s CPU     36.72s WALL



     Representation #   1 modes #   1   2

     Self-consistent Calculation

      iter #   1 total cpu time :    37.6 secs   av.it.:   6.2
      thresh= 1.000E-02 alpha_mix =  0.700 |ddv_scf|^2 =  7.983E-07

      iter #   2 total cpu time :    38.0 secs   av.it.:  10.5
      thresh= 8.935E-05 alpha_mix =  0.700 |ddv_scf|^2 =  2.232E-07

      iter #   3 total cpu time :    38.5 secs   av.it.:  10.3
      thresh= 4.725E-05 alpha_mix =  0.700 |ddv_scf|^2 =  2.370E-10

      iter #   4 total cpu time :    38.9 secs   av.it.:  10.4
      thresh= 1.539E-06 alpha_mix =  0.700 |ddv_scf|^2 =  2.031E-13

      iter #   5 total cpu time :    39.3 secs   av.it.:  10.2
      thresh= 4.506E-08 alpha_mix =  0.700 |ddv_scf|^2 =  1.083E-14

      iter #   6 total cpu time :    39.6 secs   av.it.:  10.2
      thresh= 1.041E-08 alpha_mix =  0.700 |ddv_scf|^2 =  4.985E-17

      iter #   7 total cpu time :    40.0 secs   av.it.:  10.1
      thresh= 7.061E-10 alpha_mix =  0.700 |ddv_scf|^2 =  1.772E-18

     End of self-consistent calculation

     Convergence has been achieved 


     Representation #   2 modes #   3   4

     Self-consistent Calculation

      iter #   1 total cpu time :    40.4 secs   av.it.:   6.5
      thresh= 1.000E-02 alpha_mix =  0.700 |ddv_scf|^2 =  4.317E-06

      iter #   2 total cpu time :    40.7 secs   av.it.:  10.5
      thresh= 2.078E-04 alpha_mix =  0.700 |ddv_scf|^2 =  6.125E-06

      iter #   3 total cpu time :    41.0 secs   av.it.:   9.8
      thresh= 2.475E-04 alpha_mix =  0.700 |ddv_scf|^2 =  1.033E-09

      iter #   4 total cpu time :    41.4 secs   av.it.:  10.4
      thresh= 3.215E-06 alpha_mix =  0.700 |ddv_scf|^2 =  5.213E-11

      iter #   5 total cpu time :    41.7 secs   av.it.:  10.4
      thresh= 7.220E-07 alpha_mix =  0.700 |ddv_scf|^2 =  4.798E-13

      iter #   6 total cpu time :    42.1 secs   av.it.:  10.2
      thresh= 6.927E-08 alpha_mix =  0.700 |ddv_scf|^2 =  6.430E-15

      iter #   7 total cpu time :    42.5 secs   av.it.:  10.3
      thresh= 8.019E-09 alpha_mix =  0.700 |ddv_scf|^2 =  9.082E-17

      iter #   8 total cpu time :    42.8 secs   av.it.:  10.4
      thresh= 9.530E-10 alpha_mix =  0.700 |ddv_scf|^2 =  3.842E-18

     End of self-consistent calculation

     Convergence has been achieved 


     Representation #   3 modes #   5   6

     Self-consistent Calculation

      iter #   1 total cpu time :    43.4 secs   av.it.:   5.1
      thresh= 1.000E-02 alpha_mix =  0.700 |ddv_scf|^2 =  6.713E-09

      iter #   2 total cpu time :    43.7 secs   av.it.:  10.4
      thresh= 8.194E-06 alpha_mix =  0.700 |ddv_scf|^2 =  3.791E-10

      iter #   3 total cpu time :    44.1 secs   av.it.:  10.5
      thresh= 1.947E-06 alpha_mix =  0.700 |ddv_scf|^2 =  2.462E-12

      iter #   4 total cpu time :    44.4 secs   av.it.:  10.1
      thresh= 1.569E-07 alpha_mix =  0.700 |ddv_scf|^2 =  4.490E-14

      iter #   5 total cpu time :    44.8 secs   av.it.:  10.5
      thresh= 2.119E-08 alpha_mix =  0.700 |ddv_scf|^2 =  1.130E-16

      iter #   6 total cpu time :    45.2 secs   av.it.:  10.3
      thresh= 1.063E-09 alpha_mix =  0.700 |ddv_scf|^2 =  1.150E-18

     End of self-consistent calculation

     Convergence has been achieved 
 
     Number of q in the star =    3
     List of q in the star:
          1   0.000000000  -1.000000000   0.000000000
          2  -1.000000000   0.000000000   0.000000000
          3   0.000000000   0.000000000   1.000000000

     Diagonalizing the dynamical matrix

     q = (    0.000000000  -1.000000000   0.000000000 ) 

 **************************************************************************
     freq (    1) =       4.020816 [THz] =     134.119978 [cm-1]
     freq (    2) =       4.020816 [THz] =     134.119978 [cm-1]
     freq (    3) =      12.132814 [THz] =     404.707127 [cm-1]
     freq (    4) =      12.132814 [THz] =     404.707127 [cm-1]
     freq (    5) =      13.732842 [THz] =     458.078305 [cm-1]
     freq (    6) =      13.732842 [THz] =     458.078305 [cm-1]
 **************************************************************************
 
     init_run     :      0.01s CPU      0.12s WALL (       2 calls)
     electrons    :      8.90s CPU      9.19s WALL (       2 calls)

     Called by init_run:
     wfcinit      :      0.00s CPU      0.02s WALL (       2 calls)
     wfcinit:atom :      0.00s CPU      0.01s WALL (      64 calls)
     wfcinit:wfcr :      0.13s CPU      0.13s WALL (      64 calls)
     potinit      :      0.00s CPU      0.02s WALL (       2 calls)
     hinit0       :      0.00s CPU      0.00s WALL (       2 calls)

     Called by electrons:
     c_bands      :      8.90s CPU      9.17s WALL (       2 calls)
     v_of_rho     :      0.00s CPU      0.00s WALL (       3 calls)
     v_h          :      0.00s CPU      0.00s WALL (       3 calls)
     v_xc         :      0.00s CPU      0.00s WALL (       6 calls)

     Called by c_bands:
     init_us_2    :      0.03s CPU      0.03s WALL (    1452 calls)
     cegterg      :      1.30s CPU      1.36s WALL (      84 calls)

     Called by sum_band:

     Called by *egterg:
     cdiaghg      :      0.62s CPU      0.65s WALL (    1372 calls)
     cegterg:over :      0.06s CPU      0.06s WALL (    1308 calls)
     cegterg:upda :      0.01s CPU      0.01s WALL (    1308 calls)
     cegterg:last :      0.01s CPU      0.01s WALL (     298 calls)
     h_psi        :      5.81s CPU      6.44s WALL (   24056 calls)
     g_psi        :      0.00s CPU      0.00s WALL (    1308 calls)

     Called by h_psi:
     h_psi:calbec :      0.35s CPU      0.38s WALL (   24056 calls)
     vloc_psi     :      5.24s CPU      5.81s WALL (   24056 calls)
     add_vuspsi   :      0.13s CPU      0.14s WALL (   24056 calls)

     General routines
     calbec       :      0.94s CPU      1.04s WALL (   48040 calls)
     fft          :      0.12s CPU      0.14s WALL (    2562 calls)
     ffts         :      0.42s CPU      0.43s WALL (     342 calls)
     fftw         :      7.25s CPU      8.06s WALL (  224406 calls)
     davcio       :      0.63s CPU      6.61s WALL (    9044 calls)
 
     Parallel routines
 
     PHONON       :     25.70s CPU     45.46s WALL

     INITIALIZATION: 
     phq_setup    :      0.01s CPU      0.06s WALL (       3 calls)
     phq_init     :      0.05s CPU      0.15s WALL (       3 calls)
 
     phq_init     :      0.05s CPU      0.15s WALL (       3 calls)
     set_drhoc    :      0.01s CPU      0.01s WALL (       9 calls)
     init_vloc    :      0.01s CPU      0.01s WALL (       3 calls)
     init_us_1    :      0.00s CPU      0.00s WALL (       3 calls)
     init_us_2    :      0.03s CPU      0.03s WALL (    1452 calls)
 
     DYNAMICAL MATRIX:
     dynmat0      :      0.03s CPU      0.12s WALL (       3 calls)
     dynmat_us    :      0.03s CPU      0.03s WALL (       3 calls)
     d2ionq       :      0.00s CPU      0.00s WALL (       3 calls)
     dynmatcc     :      0.00s CPU      0.00s WALL (       3 calls)
     phqscf       :     14.90s CPU     29.16s WALL (       3 calls)
     dynmatrix    :      0.19s CPU      1.72s WALL (       3 calls)
 
     phqscf       :     14.90s CPU     29.16s WALL (       3 calls)
     solve_linter :     14.54s CPU     25.10s WALL (       9 calls)
     sth_kernel   :      9.32s CPU     14.20s WALL (      72 calls)
     h_prec       :      0.23s CPU      0.26s WALL (    1026 calls)
     apply_dpot_b :      1.13s CPU      1.28s WALL (    1611 calls)
     ortho        :      0.13s CPU      0.15s WALL (    1899 calls)
     cgsolve      :      6.06s CPU      6.75s WALL (    1899 calls)
     incdrhoscf   :      1.16s CPU      1.28s WALL (    1875 calls)
                                        0.00s GPU  (    1875 calls)
     dv_of_drho   :      0.07s CPU      0.07s WALL (     147 calls)
     mix_pot      :      0.37s CPU      2.50s WALL (      72 calls)
     drhodv       :      0.36s CPU      1.86s WALL (       9 calls)
     psymdvscf    :      1.55s CPU      1.59s WALL (      65 calls)
 
     dvqpsi_us    :      0.73s CPU      0.77s WALL (     288 calls)
                                        0.00s GPU  (     288 calls)
     dvqpsi_us_on :      0.08s CPU      0.09s WALL (     288 calls)
 
     add_vuspsi   :      0.13s CPU      0.14s WALL (   24056 calls)
 
 
      General routines
     calbec       :      0.94s CPU      1.04s WALL (   48040 calls)
     fft          :      0.12s CPU      0.14s WALL (    2562 calls)
     ffts         :      0.42s CPU      0.43s WALL (     342 calls)
     fftw         :      7.25s CPU      8.06s WALL (  224406 calls)
     davcio       :      0.63s CPU      6.61s WALL (    9044 calls)
     write_rec    :      0.09s CPU      5.43s WALL (      81 calls)
 
      Additional routines
     ch_psi       :      5.82s CPU      6.48s WALL (   22600 calls)
     last         :      0.59s CPU      0.65s WALL (   22600 calls)
     Hesh         :      0.02s CPU      0.02s WALL (   22600 calls)
     ch_psi_all_k :      0.53s CPU      0.58s WALL (   22600 calls)
                                        0.00s GPU  (   22600 calls)
     ch_psi_calbe :      0.28s CPU      0.30s WALL (   22600 calls)
                                        0.00s GPU  (   22600 calls)
     h_psi_bgrp   :      5.84s CPU      6.47s WALL (   24056 calls)
     h_psi        :      5.81s CPU      6.44s WALL (   24056 calls)
     h_psi:pot    :      5.77s CPU      6.40s WALL (   24056 calls)
     h_psi:calbec :      0.35s CPU      0.38s WALL (   24056 calls)
     s_psi_bgrp   :      0.03s CPU      0.03s WALL (   47099 calls)
 
 
     PHONON       :     25.70s CPU     45.46s WALL

 
   This run was terminated on:   1:16:11  12Sep2025            

=------------------------------------------------------------------------------=
   JOB DONE.
=------------------------------------------------------------------------------=
