
     Program PHONON v.7.3 starts on 12Sep2025 at 22:24:49 

     This program is part of the open-source Quantum ESPRESSO suite
     for quantum simulation of materials; please cite
         "P. Giannozzi et al., J. Phys.:Condens. Matter 21 395502 (2009);
         "P. Giannozzi et al., J. Phys.:Condens. Matter 29 465901 (2017);
         "P. Giannozzi et al., J. Chem. Phys. 152 154105 (2020);
          URL http://www.quantum-espresso.org", 
     in publications or presentations arising from this work. More details at
     http://www.quantum-espresso.org/quote

     Serial version
     7014 MiB available memory on the printing compute node when the environment starts

     Reading input from ph.in

     Reading xml data from directory:

     ./tmp/gaas.save/


     IMPORTANT: XC functional enforced from input :
     Exchange-correlation= PZ
                           (   1   1   0   0   0   0   0)
     Any further DFT definition will be discarded
     Please, verify this is what you really want


     G-vector sticks info
     --------------------
     sticks:   dense  smooth     PW     G-vecs:    dense   smooth      PW
     Sum        1099    1099    313                23973    23973    3839

     Using Slab Decomposition

     Reading collected, re-writing distributed wavefunctions in ./tmp/


     Dynamical matrices for ( 2, 2, 2)  uniform grid of q-points
     (   3 q-points):
       N         xq(1)         xq(2)         xq(3) 
       1   0.000000000   0.000000000   0.000000000
       2   0.500000000  -0.500000000   0.500000000
       3   0.000000000  -1.000000000   0.000000000

     Number and degeneracy of irreps per q-point
       N         xq(1)         xq(2)         xq(3)   N irreps
       1   0.000000000   0.000000000   0.000000000       2
        3   3
       2   0.500000000  -0.500000000   0.500000000       4
        1   1   2   2
       3   0.000000000  -1.000000000   0.000000000       4
        1   1   2   2

     Saving dvscf to file. Distribute only q points, not irreducible representations.

     Calculation of q =    0.0000000   0.0000000   0.0000000

     Phonons on a uniform grid                                                  

     bravais-lattice index     =            2
     lattice parameter (alat)  =      10.5000  a.u.
     unit-cell volume          =     289.4062 (a.u.)^3
     number of atoms/cell      =            2
     number of atomic types    =            2
     kinetic-energy cut-off    =      72.0000  Ry
     charge density cut-off    =     288.0000  Ry
     convergence threshold     =      1.0E-13
     beta                      =       0.7000
     number of iterations used =            4
     Exchange-correlation= PZ
                           (   1   1   0   0   0   0   0)


     celldm(1)=   10.50000  celldm(2)=    0.00000  celldm(3)=    0.00000
     celldm(4)=    0.00000  celldm(5)=    0.00000  celldm(6)=    0.00000

     crystal axes: (cart. coord. in units of alat)
               a(1) = ( -0.5000  0.0000  0.5000 )  
               a(2) = (  0.0000  0.5000  0.5000 )  
               a(3) = ( -0.5000  0.5000  0.0000 )  

     reciprocal axes: (cart. coord. in units 2 pi/alat)
               b(1) = ( -1.0000 -1.0000  1.0000 )  
               b(2) = (  1.0000  1.0000  1.0000 )  
               b(3) = ( -1.0000  1.0000 -1.0000 )  


     Atoms inside the unit cell: 

     Cartesian axes

     site n.  atom      mass           positions (alat units)
        1  Ga     69.7200   tau(    1) = (    0.00000    0.00000    0.00000  )
        2  As     74.9220   tau(    2) = (    0.25000    0.25000    0.25000  )

     Computing dynamical matrix for 
                    q = (   0.0000000   0.0000000   0.0000000 )

     25 Sym.Ops. (with q -> -q+G )


     G cutoff =  804.2876  (  23973 G-vectors)     FFT grid: ( 45, 45, 45)
     number of k points=    29

     PseudoPot. # 1 for Ga read from file:
     ../pseudo/Ga.pz-hgh.UPF
     MD5 check sum: 7d6f9b6e7626e366da1d633ca4072b66
     Pseudo is Norm-conserving, Zval =  3.0
     Generated in analytical, separable form
     Using radial grid of 1205 points,  6 beta functions with: 
                l(1) =   0
                l(2) =   0
                l(3) =   0
                l(4) =   1
                l(5) =   1
                l(6) =   2

     PseudoPot. # 2 for As read from file:
     ../pseudo/As.pz-hgh.UPF
     MD5 check sum: 0df9aa670fc09104097d4eaec123a9c8
     Pseudo is Norm-conserving, Zval =  5.0
     Generated in analytical, separable form
     Using radial grid of 1209 points,  6 beta functions with: 
                l(1) =   0
                l(2) =   0
                l(3) =   0
                l(4) =   1
                l(5) =   1
                l(6) =   2

     Mode symmetry, T_d (-43m)  point group:


     Electric field:
     Dielectric constant
     Born effective charges in two ways 


     Atomic displacements:
     There are    2 irreducible representations

     Representation     1      3 modes -  To be done

     Representation     2      3 modes -  To be done



     Alpha used in Ewald sum =   2.8000
     PHONON       :      0.85s CPU      1.00s WALL


     Electric Fields Calculation

      iter #   1 total cpu time :    24.2 secs   av.it.:   6.0
      thresh= 1.000E-02 alpha_mix =  0.700 |ddv_scf|^2 =  6.131E-08

      iter #   2 total cpu time :    35.2 secs   av.it.:  10.4
      thresh= 2.476E-05 alpha_mix =  0.700 |ddv_scf|^2 =  2.186E-09

      iter #   3 total cpu time :    46.0 secs   av.it.:  10.3
      thresh= 4.675E-06 alpha_mix =  0.700 |ddv_scf|^2 =  4.369E-11

      iter #   4 total cpu time :    57.2 secs   av.it.:  10.5
      thresh= 6.610E-07 alpha_mix =  0.700 |ddv_scf|^2 =  2.256E-13

      iter #   5 total cpu time :    67.7 secs   av.it.:   9.8
      thresh= 4.750E-08 alpha_mix =  0.700 |ddv_scf|^2 =  3.781E-15

     End of electric fields calculation

          Dielectric constant in cartesian axis 

          (      16.815073911      -0.000000000       0.000000000 )
          (      -0.000000000      16.815073911      -0.000000000 )
          (       0.000000000      -0.000000000      16.815073911 )

          Effective charges (d Force / dE) in cartesian axis without acoustic sum rule applied (asr)

           atom      1Ga    Mean Z*:        2.01659
      Ex  (        2.01659       -0.00000       -0.00000 )
      Ey  (       -0.00000        2.01659        0.00000 )
      Ez  (       -0.00000        0.00000        2.01659 )
           atom      2As    Mean Z*:       -2.23872
      Ex  (       -2.23872       -0.00000       -0.00000 )
      Ey  (       -0.00000       -2.23872        0.00000 )
      Ez  (       -0.00000       -0.00000       -2.23872 )

          Effective charges Sum: Mean:       -0.22213
             -0.22213       -0.00000       -0.00000
             -0.00000       -0.22213       -0.00000
             -0.00000        0.00000       -0.22213

          Effective charges (d Force / dE) in cartesian axis with asr applied: 
           atom      1Ga    Mean Z*:        2.12766
      E*x (        2.12766        0.00000        0.00000 )
      E*y (        0.00000        2.12766       -0.00000 )
      E*z (        0.00000        0.00000        2.12766 )
           atom      2As    Mean Z*:       -2.12766
      E*x (       -2.12766       -0.00000       -0.00000 )
      E*y (       -0.00000       -2.12766        0.00000 )
      E*z (       -0.00000       -0.00000       -2.12766 )


     Representation #   1 modes #   1   2   3

     Self-consistent Calculation

      iter #   1 total cpu time :    77.3 secs   av.it.:   5.8
      thresh= 1.000E-02 alpha_mix =  0.700 |ddv_scf|^2 =  3.405E-08

      iter #   2 total cpu time :    88.8 secs   av.it.:  10.9
      thresh= 1.845E-05 alpha_mix =  0.700 |ddv_scf|^2 =  1.143E-09

      iter #   3 total cpu time :   100.2 secs   av.it.:  10.7
      thresh= 3.382E-06 alpha_mix =  0.700 |ddv_scf|^2 =  9.861E-12

      iter #   4 total cpu time :   111.0 secs   av.it.:  10.4
      thresh= 3.140E-07 alpha_mix =  0.700 |ddv_scf|^2 =  8.877E-14

     End of self-consistent calculation

     Convergence has been achieved 


     Representation #   2 modes #   4   5   6

     Self-consistent Calculation

      iter #   1 total cpu time :   117.7 secs   av.it.:   4.5
      thresh= 1.000E-02 alpha_mix =  0.700 |ddv_scf|^2 =  3.372E-09

      iter #   2 total cpu time :   129.2 secs   av.it.:  10.6
      thresh= 5.807E-06 alpha_mix =  0.700 |ddv_scf|^2 =  3.385E-11

      iter #   3 total cpu time :   139.7 secs   av.it.:   9.6
      thresh= 5.818E-07 alpha_mix =  0.700 |ddv_scf|^2 =  3.259E-12

      iter #   4 total cpu time :   150.0 secs   av.it.:   9.7
      thresh= 1.805E-07 alpha_mix =  0.700 |ddv_scf|^2 =  1.133E-14

     End of self-consistent calculation

     Convergence has been achieved 

     Number of q in the star =    1
     List of q in the star:
          1   0.000000000   0.000000000   0.000000000

          Dielectric constant in cartesian axis 

          (      16.815073911      -0.000000000       0.000000000 )
          (      -0.000000000      16.815073911      -0.000000000 )
          (       0.000000000      -0.000000000      16.815073911 )

          Effective charges (d Force / dE) in cartesian axis without acoustic sum rule applied (asr)

           atom      1Ga    Mean Z*:        2.01659
      Ex  (        2.01659       -0.00000       -0.00000 )
      Ey  (       -0.00000        2.01659        0.00000 )
      Ez  (       -0.00000        0.00000        2.01659 )
           atom      2As    Mean Z*:       -2.23872
      Ex  (       -2.23872       -0.00000       -0.00000 )
      Ey  (       -0.00000       -2.23872        0.00000 )
      Ez  (       -0.00000       -0.00000       -2.23872 )

          Effective charges Sum: Mean:       -0.22213
             -0.22213       -0.00000       -0.00000
             -0.00000       -0.22213       -0.00000
             -0.00000        0.00000       -0.22213

          Effective charges (d Force / dE) in cartesian axis with asr applied: 
           atom      1Ga    Mean Z*:        2.12766
      E*x (        2.12766        0.00000        0.00000 )
      E*y (        0.00000        2.12766       -0.00000 )
      E*z (        0.00000        0.00000        2.12766 )
           atom      2As    Mean Z*:       -2.12766
      E*x (       -2.12766       -0.00000       -0.00000 )
      E*y (       -0.00000       -2.12766        0.00000 )
      E*z (       -0.00000       -0.00000       -2.12766 )

          Effective charges (d P / du) in cartesian axis 

           atom      1Ga    
      Px  (        2.01563       -0.00000       -0.00000 )
      Py  (        0.00000        2.01563        0.00000 )
      Pz  (       -0.00000       -0.00000        2.01563 )
           atom      2As    
      Px  (       -2.23896        0.00000        0.00000 )
      Py  (        0.00000       -2.23896        0.00000 )
      Pz  (       -0.00000       -0.00000       -2.23896 )

     Diagonalizing the dynamical matrix

     q = (    0.000000000   0.000000000   0.000000000 ) 

 **************************************************************************
     freq (    1) =       0.290489 [THz] =       9.689663 [cm-1]
     freq (    2) =       0.290489 [THz] =       9.689663 [cm-1]
     freq (    3) =       0.290489 [THz] =       9.689663 [cm-1]
     freq (    4) =       8.019989 [THz] =     267.518049 [cm-1]
     freq (    5) =       8.019989 [THz] =     267.518049 [cm-1]
     freq (    6) =       8.019989 [THz] =     267.518049 [cm-1]
 **************************************************************************

     Mode symmetry, T_d (-43m)  point group:

     freq (   1-   3) =          9.7  [cm-1]   --> T_2  G_15 P_4   I+R
     freq (   4-   6) =        267.5  [cm-1]   --> T_2  G_15 P_4   I+R

     Calculation of q =    0.5000000  -0.5000000   0.5000000

     G-vector sticks info
     --------------------
     sticks:   dense  smooth     PW     G-vecs:    dense   smooth      PW
     Sum        1099    1099    361                23973    23973    4573

     Using Slab Decomposition


     Title: 
     Phonons on a uniform grid                                                  


     bravais-lattice index     =            2
     lattice parameter (alat)  =      10.5000  a.u.
     unit-cell volume          =     289.4062 (a.u.)^3
     number of atoms/cell      =            2
     number of atomic types    =            2
     number of electrons       =         8.00
     number of Kohn-Sham states=            4
     kinetic-energy cutoff     =      72.0000  Ry
     charge density cutoff     =     288.0000  Ry
     Exchange-correlation= PZ
                           (   1   1   0   0   0   0   0)

     celldm(1)=  10.500000  celldm(2)=   0.000000  celldm(3)=   0.000000
     celldm(4)=   0.000000  celldm(5)=   0.000000  celldm(6)=   0.000000

     crystal axes: (cart. coord. in units of alat)
               a(1) = (  -0.500000   0.000000   0.500000 )  
               a(2) = (   0.000000   0.500000   0.500000 )  
               a(3) = (  -0.500000   0.500000   0.000000 )  

     reciprocal axes: (cart. coord. in units 2 pi/alat)
               b(1) = ( -1.000000 -1.000000  1.000000 )  
               b(2) = (  1.000000  1.000000  1.000000 )  
               b(3) = ( -1.000000  1.000000 -1.000000 )  


     PseudoPot. # 1 for Ga read from file:
     ../pseudo/Ga.pz-hgh.UPF
     MD5 check sum: 7d6f9b6e7626e366da1d633ca4072b66
     Pseudo is Norm-conserving, Zval =  3.0
     Generated in analytical, separable form
     Using radial grid of 1205 points,  6 beta functions with: 
                l(1) =   0
                l(2) =   0
                l(3) =   0
                l(4) =   1
                l(5) =   1
                l(6) =   2

     PseudoPot. # 2 for As read from file:
     ../pseudo/As.pz-hgh.UPF
     MD5 check sum: 0df9aa670fc09104097d4eaec123a9c8
     Pseudo is Norm-conserving, Zval =  5.0
     Generated in analytical, separable form
     Using radial grid of 1209 points,  6 beta functions with: 
                l(1) =   0
                l(2) =   0
                l(3) =   0
                l(4) =   1
                l(5) =   1
                l(6) =   2

     atomic species   valence    mass     pseudopotential
     Ga                3.00    69.72000     Ga( 1.00)
     As                5.00    74.92200     As( 1.00)

     24 Sym. Ops. (no inversion) found



   Cartesian axes

     site n.     atom                  positions (alat units)
         1        Ga     tau(   1) = (   0.0000000   0.0000000   0.0000000  )
         2        As     tau(   2) = (   0.2500000   0.2500000   0.2500000  )

     number of k points=   130

     Number of k-points >= 100: set verbosity='high' to print them.

     Dense  grid:    23973 G-vectors     FFT dimensions: (  45,  45,  45)

     Estimated max dynamical RAM per process >      15.96 MB

     The potential is recalculated from file :
     ./tmp/_ph0/gaas.q_2/gaas.save/charge-density

     Starting wfcs are   18 atomic wfcs

     Band Structure Calculation
     Davidson diagonalization with overlap

     ethr =  1.25E-10,  avg # of iterations =  8.9

     total cpu time spent up to now is       18.8 secs

     End of band structure calculation

     Number of k-points >= 100: set verbosity='high' to print the bands.

     highest occupied level (ev):     5.1779

     Writing config to output data dir ./tmp/_ph0/gaas.q_2/gaas.save/ :
     XML data file

     Phonons on a uniform grid                                                  

     bravais-lattice index     =            2
     lattice parameter (alat)  =      10.5000  a.u.
     unit-cell volume          =     289.4062 (a.u.)^3
     number of atoms/cell      =            2
     number of atomic types    =            2
     kinetic-energy cut-off    =      72.0000  Ry
     charge density cut-off    =     288.0000  Ry
     convergence threshold     =      1.0E-13
     beta                      =       0.7000
     number of iterations used =            4
     Exchange-correlation= PZ
                           (   1   1   0   0   0   0   0)


     celldm(1)=   10.50000  celldm(2)=    0.00000  celldm(3)=    0.00000
     celldm(4)=    0.00000  celldm(5)=    0.00000  celldm(6)=    0.00000

     crystal axes: (cart. coord. in units of alat)
               a(1) = ( -0.5000  0.0000  0.5000 )  
               a(2) = (  0.0000  0.5000  0.5000 )  
               a(3) = ( -0.5000  0.5000  0.0000 )  

     reciprocal axes: (cart. coord. in units 2 pi/alat)
               b(1) = ( -1.0000 -1.0000  1.0000 )  
               b(2) = (  1.0000  1.0000  1.0000 )  
               b(3) = ( -1.0000  1.0000 -1.0000 )  


     Atoms inside the unit cell: 

     Cartesian axes

     site n.  atom      mass           positions (alat units)
        1  Ga     69.7200   tau(    1) = (    0.00000    0.00000    0.00000  )
        2  As     74.9220   tau(    2) = (    0.25000    0.25000    0.25000  )

     Computing dynamical matrix for 
                    q = (   0.5000000  -0.5000000   0.5000000 )

      7 Sym.Ops. (with q -> -q+G )


     G cutoff =  804.2876  (  23973 G-vectors)     FFT grid: ( 45, 45, 45)
     number of k points=   130

     PseudoPot. # 1 for Ga read from file:
     ../pseudo/Ga.pz-hgh.UPF
     MD5 check sum: 7d6f9b6e7626e366da1d633ca4072b66
     Pseudo is Norm-conserving, Zval =  3.0
     Generated in analytical, separable form
     Using radial grid of 1205 points,  6 beta functions with: 
                l(1) =   0
                l(2) =   0
                l(3) =   0
                l(4) =   1
                l(5) =   1
                l(6) =   2

     PseudoPot. # 2 for As read from file:
     ../pseudo/As.pz-hgh.UPF
     MD5 check sum: 0df9aa670fc09104097d4eaec123a9c8
     Pseudo is Norm-conserving, Zval =  5.0
     Generated in analytical, separable form
     Using radial grid of 1209 points,  6 beta functions with: 
                l(1) =   0
                l(2) =   0
                l(3) =   0
                l(4) =   1
                l(5) =   1
                l(6) =   2

     Mode symmetry, C_3v (3m)   point group:


     Atomic displacements:
     There are    4 irreducible representations

     Representation     1      1 modes -  To be done

     Representation     2      1 modes -  To be done

     Representation     3      2 modes -  To be done

     Representation     4      2 modes -  To be done


     Message from routine init_vloc:
     Interpolation table for Vloc re-allocated

     Alpha used in Ewald sum =   2.8000
     PHONON       :   2m46.80s CPU   2m50.04s WALL



     Representation #   1 mode #   1

     Self-consistent Calculation

      iter #   1 total cpu time :   175.4 secs   av.it.:   5.4
      thresh= 1.000E-02 alpha_mix =  0.700 |ddv_scf|^2 =  5.403E-06

      iter #   2 total cpu time :   183.0 secs   av.it.:   9.3
      thresh= 2.324E-04 alpha_mix =  0.700 |ddv_scf|^2 =  1.155E-05

      iter #   3 total cpu time :   190.0 secs   av.it.:   8.5
      thresh= 3.399E-04 alpha_mix =  0.700 |ddv_scf|^2 =  3.588E-08

      iter #   4 total cpu time :   197.3 secs   av.it.:   8.7
      thresh= 1.894E-05 alpha_mix =  0.700 |ddv_scf|^2 =  6.413E-10

      iter #   5 total cpu time :   204.5 secs   av.it.:   8.8
      thresh= 2.532E-06 alpha_mix =  0.700 |ddv_scf|^2 =  1.216E-11

      iter #   6 total cpu time :   212.0 secs   av.it.:   9.1
      thresh= 3.487E-07 alpha_mix =  0.700 |ddv_scf|^2 =  1.454E-13

      iter #   7 total cpu time :   219.4 secs   av.it.:   9.0
      thresh= 3.813E-08 alpha_mix =  0.700 |ddv_scf|^2 =  4.643E-15

     End of self-consistent calculation

     Convergence has been achieved 


     Representation #   2 mode #   2

     Self-consistent Calculation

      iter #   1 total cpu time :   225.5 secs   av.it.:   6.0
      thresh= 1.000E-02 alpha_mix =  0.700 |ddv_scf|^2 =  2.544E-05

      iter #   2 total cpu time :   233.0 secs   av.it.:   9.2
      thresh= 5.043E-04 alpha_mix =  0.700 |ddv_scf|^2 =  5.940E-05

      iter #   3 total cpu time :   239.9 secs   av.it.:   8.4
      thresh= 7.707E-04 alpha_mix =  0.700 |ddv_scf|^2 =  2.590E-08

      iter #   4 total cpu time :   247.1 secs   av.it.:   8.7
      thresh= 1.609E-05 alpha_mix =  0.700 |ddv_scf|^2 =  4.316E-10

      iter #   5 total cpu time :   254.3 secs   av.it.:   8.7
      thresh= 2.077E-06 alpha_mix =  0.700 |ddv_scf|^2 =  1.532E-11

      iter #   6 total cpu time :   261.8 secs   av.it.:   9.1
      thresh= 3.915E-07 alpha_mix =  0.700 |ddv_scf|^2 =  1.293E-12

      iter #   7 total cpu time :   269.0 secs   av.it.:   8.9
      thresh= 1.137E-07 alpha_mix =  0.700 |ddv_scf|^2 =  9.859E-16

     End of self-consistent calculation

     Convergence has been achieved 


     Representation #   3 modes #   3   4

     Self-consistent Calculation

      iter #   1 total cpu time :   280.5 secs   av.it.:   5.9
      thresh= 1.000E-02 alpha_mix =  0.700 |ddv_scf|^2 =  1.109E-07

      iter #   2 total cpu time :   297.1 secs   av.it.:  10.5
      thresh= 3.330E-05 alpha_mix =  0.700 |ddv_scf|^2 =  6.562E-09

      iter #   3 total cpu time :   313.4 secs   av.it.:  10.3
      thresh= 8.100E-06 alpha_mix =  0.700 |ddv_scf|^2 =  2.457E-11

      iter #   4 total cpu time :   329.2 secs   av.it.:  10.0
      thresh= 4.957E-07 alpha_mix =  0.700 |ddv_scf|^2 =  3.537E-14

     End of self-consistent calculation

     Convergence has been achieved 


     Representation #   4 modes #   5   6

     Self-consistent Calculation

      iter #   1 total cpu time :   339.2 secs   av.it.:   4.6
      thresh= 1.000E-02 alpha_mix =  0.700 |ddv_scf|^2 =  1.508E-08

      iter #   2 total cpu time :   355.5 secs   av.it.:  10.3
      thresh= 1.228E-05 alpha_mix =  0.700 |ddv_scf|^2 =  5.959E-10

      iter #   3 total cpu time :   371.8 secs   av.it.:  10.3
      thresh= 2.441E-06 alpha_mix =  0.700 |ddv_scf|^2 =  1.674E-11

      iter #   4 total cpu time :   387.6 secs   av.it.:   9.8
      thresh= 4.092E-07 alpha_mix =  0.700 |ddv_scf|^2 =  7.897E-13

      iter #   5 total cpu time :   402.8 secs   av.it.:   9.4
      thresh= 8.886E-08 alpha_mix =  0.700 |ddv_scf|^2 =  3.692E-16

     End of self-consistent calculation

     Convergence has been achieved 

     Number of q in the star =    4
     List of q in the star:
          1   0.500000000  -0.500000000   0.500000000
          2  -0.500000000   0.500000000   0.500000000
          3   0.500000000   0.500000000  -0.500000000
          4  -0.500000000  -0.500000000  -0.500000000

     Diagonalizing the dynamical matrix

     q = (    0.500000000  -0.500000000   0.500000000 ) 

 **************************************************************************
     freq (    1) =       1.944812 [THz] =      64.871942 [cm-1]
     freq (    2) =       1.944812 [THz] =      64.871942 [cm-1]
     freq (    3) =       6.331812 [THz] =     211.206519 [cm-1]
     freq (    4) =       6.920050 [THz] =     230.828010 [cm-1]
     freq (    5) =       7.703947 [THz] =     256.976005 [cm-1]
     freq (    6) =       7.703947 [THz] =     256.976005 [cm-1]
 **************************************************************************

     Mode symmetry, C_3v (3m)   point group:

     freq (   1-   2) =         64.9  [cm-1]   --> E    L_3           
     freq (   3-   3) =        211.2  [cm-1]   --> A_1  L_1           
     freq (   4-   4) =        230.8  [cm-1]   --> A_1  L_1           
     freq (   5-   6) =        257.0  [cm-1]   --> E    L_3           

     Calculation of q =    0.0000000  -1.0000000   0.0000000

     G-vector sticks info
     --------------------
     sticks:   dense  smooth     PW     G-vecs:    dense   smooth      PW
     Sum        1099    1099    361                23973    23973    4573

     Using Slab Decomposition


     Title: 
     Phonons on a uniform grid                                                  


     bravais-lattice index     =            2
     lattice parameter (alat)  =      10.5000  a.u.
     unit-cell volume          =     289.4062 (a.u.)^3
     number of atoms/cell      =            2
     number of atomic types    =            2
     number of electrons       =         8.00
     number of Kohn-Sham states=            4
     kinetic-energy cutoff     =      72.0000  Ry
     charge density cutoff     =     288.0000  Ry
     Exchange-correlation= PZ
                           (   1   1   0   0   0   0   0)

     celldm(1)=  10.500000  celldm(2)=   0.000000  celldm(3)=   0.000000
     celldm(4)=   0.000000  celldm(5)=   0.000000  celldm(6)=   0.000000

     crystal axes: (cart. coord. in units of alat)
               a(1) = (  -0.500000   0.000000   0.500000 )  
               a(2) = (   0.000000   0.500000   0.500000 )  
               a(3) = (  -0.500000   0.500000   0.000000 )  

     reciprocal axes: (cart. coord. in units 2 pi/alat)
               b(1) = ( -1.000000 -1.000000  1.000000 )  
               b(2) = (  1.000000  1.000000  1.000000 )  
               b(3) = ( -1.000000  1.000000 -1.000000 )  


     PseudoPot. # 1 for Ga read from file:
     ../pseudo/Ga.pz-hgh.UPF
     MD5 check sum: 7d6f9b6e7626e366da1d633ca4072b66
     Pseudo is Norm-conserving, Zval =  3.0
     Generated in analytical, separable form
     Using radial grid of 1205 points,  6 beta functions with: 
                l(1) =   0
                l(2) =   0
                l(3) =   0
                l(4) =   1
                l(5) =   1
                l(6) =   2

     PseudoPot. # 2 for As read from file:
     ../pseudo/As.pz-hgh.UPF
     MD5 check sum: 0df9aa670fc09104097d4eaec123a9c8
     Pseudo is Norm-conserving, Zval =  5.0
     Generated in analytical, separable form
     Using radial grid of 1209 points,  6 beta functions with: 
                l(1) =   0
                l(2) =   0
                l(3) =   0
                l(4) =   1
                l(5) =   1
                l(6) =   2

     atomic species   valence    mass     pseudopotential
     Ga                3.00    69.72000     Ga( 1.00)
     As                5.00    74.92200     As( 1.00)

     24 Sym. Ops. (no inversion) found



   Cartesian axes

     site n.     atom                  positions (alat units)
         1        Ga     tau(   1) = (   0.0000000   0.0000000   0.0000000  )
         2        As     tau(   2) = (   0.2500000   0.2500000   0.2500000  )

     number of k points=   118

     Number of k-points >= 100: set verbosity='high' to print them.

     Dense  grid:    23973 G-vectors     FFT dimensions: (  45,  45,  45)

     Estimated max dynamical RAM per process >      15.97 MB

     The potential is recalculated from file :
     ./tmp/_ph0/gaas.q_3/gaas.save/charge-density

     Starting wfcs are   18 atomic wfcs

     Band Structure Calculation
     Davidson diagonalization with overlap

     ethr =  1.25E-10,  avg # of iterations =  8.9

     total cpu time spent up to now is       35.9 secs

     End of band structure calculation

     Number of k-points >= 100: set verbosity='high' to print the bands.

     highest occupied level (ev):     5.1779

     Writing config to output data dir ./tmp/_ph0/gaas.q_3/gaas.save/ :
     XML data file

     Phonons on a uniform grid                                                  

     bravais-lattice index     =            2
     lattice parameter (alat)  =      10.5000  a.u.
     unit-cell volume          =     289.4062 (a.u.)^3
     number of atoms/cell      =            2
     number of atomic types    =            2
     kinetic-energy cut-off    =      72.0000  Ry
     charge density cut-off    =     288.0000  Ry
     convergence threshold     =      1.0E-13
     beta                      =       0.7000
     number of iterations used =            4
     Exchange-correlation= PZ
                           (   1   1   0   0   0   0   0)


     celldm(1)=   10.50000  celldm(2)=    0.00000  celldm(3)=    0.00000
     celldm(4)=    0.00000  celldm(5)=    0.00000  celldm(6)=    0.00000

     crystal axes: (cart. coord. in units of alat)
               a(1) = ( -0.5000  0.0000  0.5000 )  
               a(2) = (  0.0000  0.5000  0.5000 )  
               a(3) = ( -0.5000  0.5000  0.0000 )  

     reciprocal axes: (cart. coord. in units 2 pi/alat)
               b(1) = ( -1.0000 -1.0000  1.0000 )  
               b(2) = (  1.0000  1.0000  1.0000 )  
               b(3) = ( -1.0000  1.0000 -1.0000 )  


     Atoms inside the unit cell: 

     Cartesian axes

     site n.  atom      mass           positions (alat units)
        1  Ga     69.7200   tau(    1) = (    0.00000    0.00000    0.00000  )
        2  As     74.9220   tau(    2) = (    0.25000    0.25000    0.25000  )

     Computing dynamical matrix for 
                    q = (   0.0000000  -1.0000000   0.0000000 )

      9 Sym.Ops. (with q -> -q+G )


     G cutoff =  804.2876  (  23973 G-vectors)     FFT grid: ( 45, 45, 45)
     number of k points=   118

     PseudoPot. # 1 for Ga read from file:
     ../pseudo/Ga.pz-hgh.UPF
     MD5 check sum: 7d6f9b6e7626e366da1d633ca4072b66
     Pseudo is Norm-conserving, Zval =  3.0
     Generated in analytical, separable form
     Using radial grid of 1205 points,  6 beta functions with: 
                l(1) =   0
                l(2) =   0
                l(3) =   0
                l(4) =   1
                l(5) =   1
                l(6) =   2

     PseudoPot. # 2 for As read from file:
     ../pseudo/As.pz-hgh.UPF
     MD5 check sum: 0df9aa670fc09104097d4eaec123a9c8
     Pseudo is Norm-conserving, Zval =  5.0
     Generated in analytical, separable form
     Using radial grid of 1209 points,  6 beta functions with: 
                l(1) =   0
                l(2) =   0
                l(3) =   0
                l(4) =   1
                l(5) =   1
                l(6) =   2

     Mode symmetry, D_2d (-42m) point group:


     Atomic displacements:
     There are    4 irreducible representations

     Representation     1      1 modes -  To be done

     Representation     2      1 modes -  To be done

     Representation     3      2 modes -  To be done

     Representation     4      2 modes -  To be done



     Alpha used in Ewald sum =   2.8000
     PHONON       :   6m54.04s CPU   7m 1.33s WALL



     Representation #   1 mode #   1

     Self-consistent Calculation

      iter #   1 total cpu time :   427.0 secs   av.it.:   5.9
      thresh= 1.000E-02 alpha_mix =  0.700 |ddv_scf|^2 =  1.089E-05

      iter #   2 total cpu time :   433.9 secs   av.it.:   9.1
      thresh= 3.299E-04 alpha_mix =  0.700 |ddv_scf|^2 =  1.408E-05

      iter #   3 total cpu time :   440.3 secs   av.it.:   8.3
      thresh= 3.752E-04 alpha_mix =  0.700 |ddv_scf|^2 =  5.687E-10

      iter #   4 total cpu time :   447.0 secs   av.it.:   8.9
      thresh= 2.385E-06 alpha_mix =  0.700 |ddv_scf|^2 =  3.685E-11

      iter #   5 total cpu time :   453.5 secs   av.it.:   8.6
      thresh= 6.071E-07 alpha_mix =  0.700 |ddv_scf|^2 =  3.814E-13

      iter #   6 total cpu time :   459.9 secs   av.it.:   8.5
      thresh= 6.176E-08 alpha_mix =  0.700 |ddv_scf|^2 =  1.314E-15

     End of self-consistent calculation

     Convergence has been achieved 


     Representation #   2 mode #   2

     Self-consistent Calculation

      iter #   1 total cpu time :   464.8 secs   av.it.:   4.9
      thresh= 1.000E-02 alpha_mix =  0.700 |ddv_scf|^2 =  1.596E-06

      iter #   2 total cpu time :   471.5 secs   av.it.:   9.0
      thresh= 1.263E-04 alpha_mix =  0.700 |ddv_scf|^2 =  1.287E-06

      iter #   3 total cpu time :   477.9 secs   av.it.:   8.4
      thresh= 1.134E-04 alpha_mix =  0.700 |ddv_scf|^2 =  3.545E-09

      iter #   4 total cpu time :   484.4 secs   av.it.:   8.6
      thresh= 5.954E-06 alpha_mix =  0.700 |ddv_scf|^2 =  2.869E-11

      iter #   5 total cpu time :   490.9 secs   av.it.:   8.5
      thresh= 5.357E-07 alpha_mix =  0.700 |ddv_scf|^2 =  2.108E-13

      iter #   6 total cpu time :   497.4 secs   av.it.:   8.5
      thresh= 4.591E-08 alpha_mix =  0.700 |ddv_scf|^2 =  3.868E-15

     End of self-consistent calculation

     Convergence has been achieved 


     Representation #   3 modes #   3   4

     Self-consistent Calculation

      iter #   1 total cpu time :   507.7 secs   av.it.:   5.7
      thresh= 1.000E-02 alpha_mix =  0.700 |ddv_scf|^2 =  2.625E-07

      iter #   2 total cpu time :   522.6 secs   av.it.:  10.1
      thresh= 5.124E-05 alpha_mix =  0.700 |ddv_scf|^2 =  4.469E-08

      iter #   3 total cpu time :   536.9 secs   av.it.:   9.8
      thresh= 2.114E-05 alpha_mix =  0.700 |ddv_scf|^2 =  3.259E-11

      iter #   4 total cpu time :   550.8 secs   av.it.:   9.6
      thresh= 5.709E-07 alpha_mix =  0.700 |ddv_scf|^2 =  6.561E-14

     End of self-consistent calculation

     Convergence has been achieved 


     Representation #   4 modes #   5   6

     Self-consistent Calculation

      iter #   1 total cpu time :   560.2 secs   av.it.:   4.9
      thresh= 1.000E-02 alpha_mix =  0.700 |ddv_scf|^2 =  5.316E-08

      iter #   2 total cpu time :   574.8 secs   av.it.:  10.2
      thresh= 2.306E-05 alpha_mix =  0.700 |ddv_scf|^2 =  8.503E-09

      iter #   3 total cpu time :   589.1 secs   av.it.:   9.8
      thresh= 9.221E-06 alpha_mix =  0.700 |ddv_scf|^2 =  2.398E-11

      iter #   4 total cpu time :   603.1 secs   av.it.:   9.5
      thresh= 4.897E-07 alpha_mix =  0.700 |ddv_scf|^2 =  2.545E-13

      iter #   5 total cpu time :   617.5 secs   av.it.:   9.8
      thresh= 5.045E-08 alpha_mix =  0.700 |ddv_scf|^2 =  1.131E-16

     End of self-consistent calculation

     Convergence has been achieved 

     Number of q in the star =    3
     List of q in the star:
          1   0.000000000  -1.000000000   0.000000000
          2   0.000000000   0.000000000  -1.000000000
          3  -1.000000000   0.000000000   0.000000000

     Diagonalizing the dynamical matrix

     q = (    0.000000000  -1.000000000   0.000000000 ) 

 **************************************************************************
     freq (    1) =       2.503253 [THz] =      83.499548 [cm-1]
     freq (    2) =       2.503253 [THz] =      83.499548 [cm-1]
     freq (    3) =       6.603001 [THz] =     220.252400 [cm-1]
     freq (    4) =       7.135581 [THz] =     238.017349 [cm-1]
     freq (    5) =       7.356786 [THz] =     245.395957 [cm-1]
     freq (    6) =       7.356786 [THz] =     245.395957 [cm-1]
 **************************************************************************

     Mode symmetry, D_2d (-42m) point group:

     freq (   1-   2) =         83.5  [cm-1]   --> E    X_5  W_3      
     freq (   3-   3) =        220.3  [cm-1]   --> A_1  X_1  W_1      
     freq (   4-   4) =        238.0  [cm-1]   --> B_2  X_3  W_2      
     freq (   5-   6) =        245.4  [cm-1]   --> E    X_5  W_3      

     init_run     :      0.57s CPU      0.58s WALL (       2 calls)
     electrons    :     34.71s CPU     35.29s WALL (       2 calls)

     Called by init_run:
     wfcinit      :      0.00s CPU      0.00s WALL (       2 calls)
     potinit      :      0.02s CPU      0.02s WALL (       2 calls)
     hinit0       :      0.42s CPU      0.42s WALL (       2 calls)

     Called by electrons:
     c_bands      :     34.71s CPU     35.29s WALL (       2 calls)
     v_of_rho     :      0.02s CPU      0.02s WALL (       3 calls)

     Called by c_bands:
     init_us_2    :      4.72s CPU      5.09s WALL (    4947 calls)
     init_us_2:cp :      4.70s CPU      5.08s WALL (    4947 calls)
     cegterg      :     22.80s CPU     22.88s WALL (     248 calls)

     Called by *egterg:
     cdiaghg      :      0.22s CPU      0.22s WALL (    2454 calls)
     h_psi        :    440.08s CPU    441.79s WALL (   55928 calls)
     g_psi        :      0.17s CPU      0.17s WALL (    2206 calls)

     Called by h_psi:
     h_psi:calbec :     38.12s CPU     38.25s WALL (   55928 calls)
     vloc_psi     :    361.40s CPU    362.81s WALL (   55928 calls)
     add_vuspsi   :     38.91s CPU     39.08s WALL (   55928 calls)

     General routines
     calbec       :     74.10s CPU     74.62s WALL (  114443 calls)
     fft          :      0.56s CPU      0.56s WALL (     315 calls)
     ffts         :      1.46s CPU      1.49s WALL (    1152 calls)
     fftw         :    375.81s CPU    377.80s WALL (  484324 calls)
     davcio       :      2.29s CPU      7.57s WALL (   25043 calls)


     PHONON       :  10m 7.40s CPU  10m18.00s WALL

     INITIALIZATION: 
     phq_setup    :      0.03s CPU      0.05s WALL (       3 calls)
     phq_init     :      1.86s CPU      1.97s WALL (       3 calls)

     phq_init     :      1.86s CPU      1.97s WALL (       3 calls)
     init_vloc    :      0.05s CPU      0.05s WALL (       3 calls)
     init_us_1    :      0.40s CPU      0.40s WALL (       3 calls)
     init_us_2    :      4.72s CPU      5.09s WALL (    4947 calls)

     DYNAMICAL MATRIX:
     dynmat0      :      1.08s CPU      1.10s WALL (       3 calls)
     dynmat_us    :      1.05s CPU      1.07s WALL (       3 calls)
     d2ionq       :      0.02s CPU      0.02s WALL (       3 calls)
     phqscf       :    502.14s CPU    510.57s WALL (       3 calls)
     dynmatrix    :      0.01s CPU      0.03s WALL (       3 calls)

     phqscf       :    502.14s CPU    510.57s WALL (       3 calls)
     solve_linter :    498.68s CPU    506.85s WALL (      10 calls)
     sth_kernel   :    532.23s CPU    538.57s WALL (      57 calls)
     h_prec       :      0.31s CPU      0.31s WALL (    3198 calls)
     apply_dpot_b :     29.53s CPU     29.84s WALL (    3976 calls)
     ortho        :      1.31s CPU      1.33s WALL (    5068 calls)
     cgsolve      :    472.01s CPU    474.13s WALL (    5068 calls)
     incdrhoscf   :     39.75s CPU     40.30s WALL (    4981 calls)
                                        0.00s GPU  (    4981 calls)
     dv_of_drho   :      0.47s CPU      0.47s WALL (     101 calls)
     mix_pot      :      0.42s CPU      1.55s WALL (      57 calls)
     drhodv       :      3.36s CPU      3.42s WALL (      10 calls)
     symdvscf     :      2.66s CPU      2.67s WALL (      52 calls)

     dvqpsi_us    :     12.40s CPU     12.51s WALL (    1092 calls)
                                        0.00s GPU  (    1092 calls)
     dvqpsi_us_on :      2.32s CPU      2.32s WALL (    1092 calls)

     add_vuspsi   :     38.91s CPU     39.08s WALL (   55928 calls)


      General routines
     calbec       :     74.10s CPU     74.62s WALL (  114443 calls)
     fft          :      0.56s CPU      0.56s WALL (     315 calls)
     ffts         :      1.46s CPU      1.49s WALL (    1152 calls)
     fftw         :    375.81s CPU    377.80s WALL (  484324 calls)
     davcio       :      2.29s CPU      7.57s WALL (   25043 calls)
     write_rec    :      0.17s CPU      1.04s WALL (      67 calls)

      Additional routines
     ch_psi       :    459.85s CPU    461.84s WALL (   53226 calls)
     last         :     46.39s CPU     46.75s WALL (   53226 calls)
     Hesh         :      1.23s CPU      1.25s WALL (   53226 calls)
     ch_psi_all_k :     44.91s CPU     45.26s WALL (   53226 calls)
                                        0.00s GPU  (   53226 calls)
     ch_psi_calbe :     32.65s CPU     32.88s WALL (   53226 calls)
                                        0.00s GPU  (   53226 calls)
     h_psi_bgrp   :    440.26s CPU    441.98s WALL (   55928 calls)
     h_psi        :    440.08s CPU    441.79s WALL (   55928 calls)
     h_psi:pot    :    438.82s CPU    440.49s WALL (   55928 calls)
     h_psi:calbec :     38.12s CPU     38.25s WALL (   55928 calls)
     s_psi_bgrp   :      1.63s CPU      1.64s WALL (  111520 calls)


     PHONON       :  10m 7.40s CPU  10m18.00s WALL


   This run was terminated on:  22:35: 7  12Sep2025            

=------------------------------------------------------------------------------=
   JOB DONE.
=------------------------------------------------------------------------------=
