
     Program PWSCF v.7.3.1 starts on 12Sep2025 at  2: 5:31 

     This program is part of the open-source Quantum ESPRESSO suite
     for quantum simulation of materials; please cite
         "P. Giannozzi et al., J. Phys.:Condens. Matter 21 395502 (2009);
         "P. Giannozzi et al., J. Phys.:Condens. Matter 29 465901 (2017);
         "P. Giannozzi et al., J. Chem. Phys. 152 154105 (2020);
          URL http://www.quantum-espresso.org", 
     in publications or presentations arising from this work. More details at
     http://www.quantum-espresso.org/quote

     Parallel version (MPI), running on    64 processors

     MPI processes distributed on     1 nodes
     510226 MiB available memory on the printing compute node when the environment starts
 
     Reading input from nscf.in
     Message from routine read_cards :
     DEPRECATED: no units specified in ATOMIC_POSITIONS card
     Message from routine read_cards :
     ATOMIC_POSITIONS: units set to alat

     Current dimensions of program PWSCF are:
     Max number of different atomic species (ntypx) = 10
     Max number of k-points (npk) =  40000
     Max angular momentum in pseudopotentials (lmaxx) =  4

     Atomic positions and unit cell read from directory:
     ./tmp/gaas.save/
 
 
     K-points division:     npool     =       8
     R & G space division:  proc/nbgrp/npool/nimage =       8
     Subspace diagonalization in iterative solution of the eigenvalue problem:
     a serial algorithm will be used

 
     Parallelization info
     --------------------
     sticks:   dense  smooth     PW     G-vecs:    dense   smooth      PW
     Min         137     137     42                 2996     2996     501
     Max         138     138     43                 2997     2997     503
     Sum        1099    1099    337                23973    23973    4015
 
     Using Slab Decomposition
 


     bravais-lattice index     =            2
     lattice parameter (alat)  =      10.5000  a.u.
     unit-cell volume          =     289.4062 (a.u.)^3
     number of atoms/cell      =            2
     number of atomic types    =            2
     number of electrons       =         8.00
     number of Kohn-Sham states=           24
     kinetic-energy cutoff     =      72.0000  Ry
     charge density cutoff     =     288.0000  Ry
     Exchange-correlation= SLA-PZ-NOGX-NOGC
                           (   1   1   0   0   0   0   0)

     celldm(1)=  10.500000  celldm(2)=   0.000000  celldm(3)=   0.000000
     celldm(4)=   0.000000  celldm(5)=   0.000000  celldm(6)=   0.000000

     crystal axes: (cart. coord. in units of alat)
               a(1) = (  -0.500000   0.000000   0.500000 )  
               a(2) = (   0.000000   0.500000   0.500000 )  
               a(3) = (  -0.500000   0.500000   0.000000 )  

     reciprocal axes: (cart. coord. in units 2 pi/alat)
               b(1) = ( -1.000000 -1.000000  1.000000 )  
               b(2) = (  1.000000  1.000000  1.000000 )  
               b(3) = ( -1.000000  1.000000 -1.000000 )  


     PseudoPot. # 1 for Ga read from file:
     ../pseudo/Ga.pz-hgh.UPF
     MD5 check sum: 7d6f9b6e7626e366da1d633ca4072b66
     Pseudo is Norm-conserving, Zval =  3.0
     Generated in analytical, separable form
     Using radial grid of 1205 points,  6 beta functions with: 
                l(1) =   0
                l(2) =   0
                l(3) =   0
                l(4) =   1
                l(5) =   1
                l(6) =   2

     PseudoPot. # 2 for As read from file:
     ../pseudo/As.pz-hgh.UPF
     MD5 check sum: 0df9aa670fc09104097d4eaec123a9c8
     Pseudo is Norm-conserving, Zval =  5.0
     Generated in analytical, separable form
     Using radial grid of 1209 points,  6 beta functions with: 
                l(1) =   0
                l(2) =   0
                l(3) =   0
                l(4) =   1
                l(5) =   1
                l(6) =   2

     atomic species   valence    mass     pseudopotential
     Ga                3.00    69.72000     Ga( 1.00)
     As                5.00    74.92200     As( 1.00)

     24 Sym. Ops. (no inversion) found



   Cartesian axes

     site n.     atom                  positions (alat units)
         1        Ga     tau(   1) = (   0.0000000   0.0000000   0.0000000  )
         2        As     tau(   2) = (   0.2500000   0.2500000   0.2500000  )

     number of k points=    64
                       cart. coord. in units 2pi/alat
        k(    1) = (   0.0000000   0.0000000   0.0000000), wk =   0.0312500
        k(    2) = (  -0.2500000   0.2500000  -0.2500000), wk =   0.0312500
        k(    3) = (  -0.5000000   0.5000000  -0.5000000), wk =   0.0312500
        k(    4) = (  -0.7500000   0.7500000  -0.7500000), wk =   0.0312500
        k(    5) = (   0.2500000   0.2500000   0.2500000), wk =   0.0312500
        k(    6) = (   0.0000000   0.5000000   0.0000000), wk =   0.0312500
        k(    7) = (  -0.2500000   0.7500000  -0.2500000), wk =   0.0312500
        k(    8) = (  -0.5000000   1.0000000  -0.5000000), wk =   0.0312500
        k(    9) = (   0.5000000   0.5000000   0.5000000), wk =   0.0312500
        k(   10) = (   0.2500000   0.7500000   0.2500000), wk =   0.0312500
        k(   11) = (   0.0000000   1.0000000   0.0000000), wk =   0.0312500
        k(   12) = (  -0.2500000   1.2500000  -0.2500000), wk =   0.0312500
        k(   13) = (   0.7500000   0.7500000   0.7500000), wk =   0.0312500
        k(   14) = (   0.5000000   1.0000000   0.5000000), wk =   0.0312500
        k(   15) = (   0.2500000   1.2500000   0.2500000), wk =   0.0312500
        k(   16) = (   0.0000000   1.5000000   0.0000000), wk =   0.0312500
        k(   17) = (  -0.2500000  -0.2500000   0.2500000), wk =   0.0312500
        k(   18) = (  -0.5000000   0.0000000   0.0000000), wk =   0.0312500
        k(   19) = (  -0.7500000   0.2500000  -0.2500000), wk =   0.0312500
        k(   20) = (  -1.0000000   0.5000000  -0.5000000), wk =   0.0312500
        k(   21) = (   0.0000000   0.0000000   0.5000000), wk =   0.0312500
        k(   22) = (  -0.2500000   0.2500000   0.2500000), wk =   0.0312500
        k(   23) = (  -0.5000000   0.5000000   0.0000000), wk =   0.0312500
        k(   24) = (  -0.7500000   0.7500000  -0.2500000), wk =   0.0312500
        k(   25) = (   0.2500000   0.2500000   0.7500000), wk =   0.0312500
        k(   26) = (   0.0000000   0.5000000   0.5000000), wk =   0.0312500
        k(   27) = (  -0.2500000   0.7500000   0.2500000), wk =   0.0312500
        k(   28) = (  -0.5000000   1.0000000   0.0000000), wk =   0.0312500
        k(   29) = (   0.5000000   0.5000000   1.0000000), wk =   0.0312500
        k(   30) = (   0.2500000   0.7500000   0.7500000), wk =   0.0312500
        k(   31) = (   0.0000000   1.0000000   0.5000000), wk =   0.0312500
        k(   32) = (  -0.2500000   1.2500000   0.2500000), wk =   0.0312500
        k(   33) = (  -0.5000000  -0.5000000   0.5000000), wk =   0.0312500
        k(   34) = (  -0.7500000  -0.2500000   0.2500000), wk =   0.0312500
        k(   35) = (  -1.0000000   0.0000000   0.0000000), wk =   0.0312500
        k(   36) = (  -1.2500000   0.2500000  -0.2500000), wk =   0.0312500
        k(   37) = (  -0.2500000  -0.2500000   0.7500000), wk =   0.0312500
        k(   38) = (  -0.5000000   0.0000000   0.5000000), wk =   0.0312500
        k(   39) = (  -0.7500000   0.2500000   0.2500000), wk =   0.0312500
        k(   40) = (  -1.0000000   0.5000000   0.0000000), wk =   0.0312500
        k(   41) = (   0.0000000   0.0000000   1.0000000), wk =   0.0312500
        k(   42) = (  -0.2500000   0.2500000   0.7500000), wk =   0.0312500
        k(   43) = (  -0.5000000   0.5000000   0.5000000), wk =   0.0312500
        k(   44) = (  -0.7500000   0.7500000   0.2500000), wk =   0.0312500
        k(   45) = (   0.2500000   0.2500000   1.2500000), wk =   0.0312500
        k(   46) = (   0.0000000   0.5000000   1.0000000), wk =   0.0312500
        k(   47) = (  -0.2500000   0.7500000   0.7500000), wk =   0.0312500
        k(   48) = (  -0.5000000   1.0000000   0.5000000), wk =   0.0312500
        k(   49) = (  -0.7500000  -0.7500000   0.7500000), wk =   0.0312500
        k(   50) = (  -1.0000000  -0.5000000   0.5000000), wk =   0.0312500
        k(   51) = (  -1.2500000  -0.2500000   0.2500000), wk =   0.0312500
        k(   52) = (  -1.5000000   0.0000000   0.0000000), wk =   0.0312500
        k(   53) = (  -0.5000000  -0.5000000   1.0000000), wk =   0.0312500
        k(   54) = (  -0.7500000  -0.2500000   0.7500000), wk =   0.0312500
        k(   55) = (  -1.0000000   0.0000000   0.5000000), wk =   0.0312500
        k(   56) = (  -1.2500000   0.2500000   0.2500000), wk =   0.0312500
        k(   57) = (  -0.2500000  -0.2500000   1.2500000), wk =   0.0312500
        k(   58) = (  -0.5000000   0.0000000   1.0000000), wk =   0.0312500
        k(   59) = (  -0.7500000   0.2500000   0.7500000), wk =   0.0312500
        k(   60) = (  -1.0000000   0.5000000   0.5000000), wk =   0.0312500
        k(   61) = (   0.0000000   0.0000000   1.5000000), wk =   0.0312500
        k(   62) = (  -0.2500000   0.2500000   1.2500000), wk =   0.0312500
        k(   63) = (  -0.5000000   0.5000000   1.0000000), wk =   0.0312500
        k(   64) = (  -0.7500000   0.7500000   0.7500000), wk =   0.0312500

     Dense  grid:    23973 G-vectors     FFT dimensions: (  45,  45,  45)

     Estimated max dynamical RAM per process >       4.99 MB

     Estimated total dynamical RAM >     319.05 MB

     The potential is recalculated from file :
     ./tmp/gaas.save/charge-density

     Starting wfcs are   18 randomized atomic wfcs +    6 random wfcs

     Band Structure Calculation
     Davidson diagonalization with overlap

     ethr =  1.00E-13,  avg # of iterations = 34.1

     total cpu time spent up to now is        8.2 secs

     End of band structure calculation

          k = 0.0000 0.0000 0.0000 (  2975 PWs)   bands (ev):

    -7.8695   5.1779   5.1779   5.1779   6.0669   9.0046   9.0046   9.0046
    12.9146  15.5291  15.5291  17.0169  17.0169  17.0169  19.9145  31.3886
    31.3886  31.3886  31.9817  31.9817  31.9817  33.4079  33.4079  33.9378

          k =-0.2500 0.2500-0.2500 (  2959 PWs)   bands (ev):

    -7.1920   0.9186   4.4715   4.4715   6.8154   9.9055   9.9055  11.4096
    14.2972  14.3775  14.3775  17.4284  21.3842  21.3842  24.1975  24.6131
    24.6131  24.9438  32.6935  32.6935  33.2784  33.2784  34.6274  35.4367

          k =-0.5000 0.5000-0.5000 (  2998 PWs)   bands (ev):

    -6.1140  -1.7081   3.9960   3.9960   6.3174   9.8934   9.8934  13.0252
    15.9680  17.5344  17.5344  18.1734  18.5679  18.5679  25.2762  27.1836
    28.3667  28.3667  28.5973  28.5973  31.8616  32.6311  33.7316  33.7316

          k =-0.7500 0.7500-0.7500 (  2959 PWs)   bands (ev):

    -7.1920   0.9186   4.4715   4.4715   6.8154   9.9055   9.9055  11.4096
    14.2972  14.3775  14.3775  17.4284  21.3842  21.3842  24.1975  24.6131
    24.6131  24.9438  32.6935  32.6935  33.2784  33.2784  34.6274  35.4367

          k = 0.2500 0.2500 0.2500 (  2959 PWs)   bands (ev):

    -7.1920   0.9186   4.4715   4.4715   6.8154   9.9055   9.9055  11.4096
    14.2972  14.3775  14.3775  17.4284  21.3842  21.3842  24.1975  24.6131
    24.6131  24.9438  32.6935  32.6935  33.2784  33.2784  34.6274  35.4367

          k = 0.0000 0.5000 0.0000 (  2978 PWs)   bands (ev):

    -6.9536   1.0164   3.4031   3.4031   7.1470   8.6115  12.0405  12.0405
    12.8347  16.6297  16.9271  19.2382  19.2382  19.7944  24.0381  24.0381
    25.7849  25.9444  27.1619  33.0330  33.6369  33.6369  34.3517  35.4471

          k =-0.2500 0.7500-0.2500 (  2988 PWs)   bands (ev):

    -5.8113  -1.2881   1.7685   3.0477   7.3874  10.1107  11.5428  12.3637
    15.8851  17.6110  18.1937  18.7053  19.6290  23.3092  24.3269  25.1425
    26.1972  26.3225  26.6430  28.6004  30.8388  31.3690  32.2904  33.6807

          k =-0.5000 1.0000-0.5000 (  2980 PWs)   bands (ev):

    -6.2376  -0.6258   1.6219   3.9076   8.0547  11.0261  11.0436  11.1628
    13.6782  15.8218  18.2792  18.9070  19.9699  23.0957  24.2270  25.3463
    25.6601  27.5297  28.0948  29.6466  30.9672  31.9543  32.7228  32.9012

          k = 0.5000 0.5000 0.5000 (  2998 PWs)   bands (ev):

    -6.1140  -1.7081   3.9960   3.9960   6.3174   9.8934   9.8934  13.0252
    15.9680  17.5344  17.5344  18.1734  18.5679  18.5679  25.2762  27.1836
    28.3667  28.3667  28.5973  28.5973  31.8616  32.6311  33.7316  33.7316

          k = 0.2500 0.7500 0.2500 (  2988 PWs)   bands (ev):

    -5.8113  -1.2881   1.7685   3.0477   7.3874  10.1107  11.5428  12.3637
    15.8851  17.6110  18.1937  18.7053  19.6290  23.3092  24.3269  25.1425
    26.1972  26.3225  26.6430  28.6004  30.8388  31.3690  32.2904  33.6807

          k = 0.0000 1.0000 0.0000 (  3002 PWs)   bands (ev):

    -5.3362  -1.8627   2.3838   2.3838   6.5259   6.8032  15.8056  15.8056
    16.6408  18.8815  18.8815  18.9706  19.3536  20.7776  25.2757  25.6702
    25.6702  25.6987  25.7839  25.8623  25.8623  27.3447  34.7466  35.5199

          k =-0.2500 1.2500-0.2500 (  2988 PWs)   bands (ev):

    -5.8113  -1.2881   1.7685   3.0477   7.3874  10.1107  11.5428  12.3637
    15.8851  17.6110  18.1937  18.7053  19.6290  23.3092  24.3269  25.1425
    26.1972  26.3225  26.6430  28.6004  30.8388  31.3690  32.2904  33.6807

          k = 0.7500 0.7500 0.7500 (  2959 PWs)   bands (ev):

    -7.1920   0.9186   4.4715   4.4715   6.8154   9.9055   9.9055  11.4096
    14.2972  14.3775  14.3775  17.4284  21.3842  21.3842  24.1975  24.6131
    24.6131  24.9438  32.6935  32.6935  33.2784  33.2784  34.6274  35.4367

          k = 0.5000 1.0000 0.5000 (  2980 PWs)   bands (ev):

    -6.2376  -0.6258   1.6219   3.9076   8.0547  11.0261  11.0436  11.1628
    13.6782  15.8218  18.2792  18.9070  19.9699  23.0957  24.2270  25.3463
    25.6601  27.5297  28.0948  29.6466  30.9672  31.9543  32.7228  32.9012

          k = 0.2500 1.2500 0.2500 (  2988 PWs)   bands (ev):

    -5.8113  -1.2881   1.7685   3.0477   7.3874  10.1107  11.5428  12.3637
    15.8851  17.6110  18.1937  18.7053  19.6290  23.3092  24.3269  25.1425
    26.1972  26.3225  26.6430  28.6004  30.8388  31.3690  32.2904  33.6807

          k = 0.0000 1.5000 0.0000 (  2978 PWs)   bands (ev):

    -6.9536   1.0164   3.4031   3.4031   7.1470   8.6115  12.0405  12.0405
    12.8347  16.6297  16.9271  19.2382  19.2382  19.7944  24.0381  24.0381
    25.7849  25.9444  27.1619  33.0330  33.6369  33.6369  34.3517  35.4471

          k =-0.2500-0.2500 0.2500 (  2959 PWs)   bands (ev):

    -7.1920   0.9186   4.4715   4.4715   6.8154   9.9055   9.9055  11.4096
    14.2972  14.3775  14.3775  17.4284  21.3842  21.3842  24.1975  24.6131
    24.6131  24.9438  32.6935  32.6935  33.2784  33.2784  34.6274  35.4367

          k =-0.5000 0.0000 0.0000 (  2978 PWs)   bands (ev):

    -6.9536   1.0164   3.4031   3.4031   7.1470   8.6115  12.0405  12.0405
    12.8347  16.6297  16.9271  19.2382  19.2382  19.7944  24.0381  24.0381
    25.7849  25.9444  27.1619  33.0330  33.6369  33.6369  34.3517  35.4471

          k =-0.7500 0.2500-0.2500 (  2988 PWs)   bands (ev):

    -5.8113  -1.2881   1.7685   3.0477   7.3874  10.1107  11.5428  12.3637
    15.8851  17.6110  18.1937  18.7053  19.6290  23.3092  24.3269  25.1425
    26.1972  26.3225  26.6430  28.6004  30.8388  31.3690  32.2904  33.6807

          k =-1.0000 0.5000-0.5000 (  2980 PWs)   bands (ev):

    -6.2376  -0.6258   1.6219   3.9076   8.0547  11.0261  11.0436  11.1628
    13.6782  15.8218  18.2792  18.9070  19.9699  23.0957  24.2270  25.3463
    25.6601  27.5297  28.0948  29.6466  30.9672  31.9543  32.7228  32.9012

          k = 0.0000 0.0000 0.5000 (  2978 PWs)   bands (ev):

    -6.9536   1.0164   3.4031   3.4031   7.1470   8.6115  12.0405  12.0405
    12.8347  16.6297  16.9271  19.2382  19.2382  19.7944  24.0381  24.0381
    25.7849  25.9444  27.1619  33.0330  33.6369  33.6369  34.3517  35.4471

          k =-0.2500 0.2500 0.2500 (  2959 PWs)   bands (ev):

    -7.1920   0.9186   4.4715   4.4715   6.8154   9.9055   9.9055  11.4096
    14.2972  14.3775  14.3775  17.4284  21.3842  21.3842  24.1975  24.6131
    24.6131  24.9438  32.6935  32.6935  33.2784  33.2784  34.6274  35.4367

          k =-0.5000 0.5000 0.0000 (  2980 PWs)   bands (ev):

    -6.2376  -0.6258   1.6219   3.9076   8.0547  11.0261  11.0436  11.1628
    13.6782  15.8218  18.2792  18.9070  19.9699  23.0957  24.2270  25.3463
    25.6601  27.5297  28.0948  29.6466  30.9672  31.9543  32.7228  32.9012

          k =-0.7500 0.7500-0.2500 (  2988 PWs)   bands (ev):

    -5.8113  -1.2881   1.7685   3.0477   7.3874  10.1107  11.5428  12.3637
    15.8851  17.6110  18.1937  18.7053  19.6290  23.3092  24.3269  25.1425
    26.1972  26.3225  26.6430  28.6004  30.8388  31.3690  32.2904  33.6807

          k = 0.2500 0.2500 0.7500 (  2988 PWs)   bands (ev):

    -5.8113  -1.2881   1.7685   3.0477   7.3874  10.1107  11.5428  12.3637
    15.8851  17.6110  18.1937  18.7053  19.6290  23.3092  24.3269  25.1425
    26.1972  26.3225  26.6430  28.6004  30.8388  31.3690  32.2904  33.6807

          k = 0.0000 0.5000 0.5000 (  2980 PWs)   bands (ev):

    -6.2376  -0.6258   1.6219   3.9076   8.0547  11.0261  11.0436  11.1628
    13.6782  15.8218  18.2792  18.9070  19.9699  23.0957  24.2270  25.3463
    25.6601  27.5297  28.0948  29.6466  30.9672  31.9543  32.7228  32.9012

          k =-0.2500 0.7500 0.2500 (  2988 PWs)   bands (ev):

    -5.8113  -1.2881   1.7685   3.0477   7.3874  10.1107  11.5428  12.3637
    15.8851  17.6110  18.1937  18.7053  19.6290  23.3092  24.3269  25.1425
    26.1972  26.3225  26.6430  28.6004  30.8388  31.3690  32.2904  33.6807

          k =-0.5000 1.0000 0.0000 (  2996 PWs)   bands (ev):

    -5.2842  -1.6423   1.4261   1.6517   9.9360  10.1364  10.8039  11.2433
    16.6228  17.8414  18.8462  19.5318  22.5635  23.1735  23.5440  24.0778
    25.6692  26.5567  27.4144  28.4524  30.3515  30.4135  32.6005  32.6553

          k = 0.5000 0.5000 1.0000 (  2980 PWs)   bands (ev):

    -6.2376  -0.6258   1.6219   3.9076   8.0547  11.0261  11.0436  11.1628
    13.6782  15.8218  18.2792  18.9070  19.9699  23.0957  24.2270  25.3463
    25.6601  27.5297  28.0948  29.6466  30.9672  31.9543  32.7228  32.9012

          k = 0.2500 0.7500 0.7500 (  2988 PWs)   bands (ev):

    -5.8113  -1.2881   1.7685   3.0477   7.3874  10.1107  11.5428  12.3637
    15.8851  17.6110  18.1937  18.7053  19.6290  23.3092  24.3269  25.1425
    26.1972  26.3225  26.6430  28.6004  30.8388  31.3690  32.2904  33.6807

          k = 0.0000 1.0000 0.5000 (  2996 PWs)   bands (ev):

    -5.2842  -1.6423   1.4261   1.6517   9.9360  10.1364  10.8039  11.2433
    16.6228  17.8414  18.8462  19.5318  22.5635  23.1735  23.5440  24.0778
    25.6692  26.5567  27.4144  28.4524  30.3515  30.4135  32.6005  32.6553

          k =-0.2500 1.2500 0.2500 (  2988 PWs)   bands (ev):

    -5.8113  -1.2881   1.7685   3.0477   7.3874  10.1107  11.5428  12.3637
    15.8851  17.6110  18.1937  18.7053  19.6290  23.3092  24.3269  25.1425
    26.1972  26.3225  26.6430  28.6004  30.8388  31.3690  32.2904  33.6807

          k =-0.5000-0.5000 0.5000 (  2998 PWs)   bands (ev):

    -6.1140  -1.7081   3.9960   3.9960   6.3174   9.8934   9.8934  13.0252
    15.9680  17.5344  17.5344  18.1734  18.5679  18.5679  25.2762  27.1836
    28.3667  28.3667  28.5973  28.5973  31.8616  32.6311  33.7316  33.7316

          k =-0.7500-0.2500 0.2500 (  2988 PWs)   bands (ev):

    -5.8113  -1.2881   1.7685   3.0477   7.3874  10.1107  11.5428  12.3637
    15.8851  17.6110  18.1937  18.7053  19.6290  23.3092  24.3269  25.1425
    26.1972  26.3225  26.6430  28.6004  30.8388  31.3690  32.2904  33.6807

          k =-1.0000 0.0000 0.0000 (  3002 PWs)   bands (ev):

    -5.3362  -1.8627   2.3838   2.3838   6.5259   6.8032  15.8056  15.8056
    16.6408  18.8815  18.8815  18.9706  19.3536  20.7776  25.2757  25.6702
    25.6702  25.6987  25.7839  25.8623  25.8623  27.3447  34.7466  35.5199

          k =-1.2500 0.2500-0.2500 (  2988 PWs)   bands (ev):

    -5.8113  -1.2881   1.7685   3.0477   7.3874  10.1107  11.5428  12.3637
    15.8851  17.6110  18.1937  18.7053  19.6290  23.3092  24.3269  25.1425
    26.1972  26.3225  26.6430  28.6004  30.8388  31.3690  32.2904  33.6807

          k =-0.2500-0.2500 0.7500 (  2988 PWs)   bands (ev):

    -5.8113  -1.2881   1.7685   3.0477   7.3874  10.1107  11.5428  12.3637
    15.8851  17.6110  18.1937  18.7053  19.6290  23.3092  24.3269  25.1425
    26.1972  26.3225  26.6430  28.6004  30.8388  31.3690  32.2904  33.6807

          k =-0.5000 0.0000 0.5000 (  2980 PWs)   bands (ev):

    -6.2376  -0.6258   1.6219   3.9076   8.0547  11.0261  11.0436  11.1628
    13.6782  15.8218  18.2792  18.9070  19.9699  23.0957  24.2270  25.3463
    25.6601  27.5297  28.0948  29.6466  30.9672  31.9543  32.7228  32.9012

          k =-0.7500 0.2500 0.2500 (  2988 PWs)   bands (ev):

    -5.8113  -1.2881   1.7685   3.0477   7.3874  10.1107  11.5428  12.3637
    15.8851  17.6110  18.1937  18.7053  19.6290  23.3092  24.3269  25.1425
    26.1972  26.3225  26.6430  28.6004  30.8388  31.3690  32.2904  33.6807

          k =-1.0000 0.5000 0.0000 (  2996 PWs)   bands (ev):

    -5.2842  -1.6423   1.4261   1.6517   9.9360  10.1364  10.8039  11.2433
    16.6228  17.8414  18.8462  19.5318  22.5635  23.1735  23.5440  24.0778
    25.6692  26.5567  27.4144  28.4524  30.3515  30.4135  32.6005  32.6553

          k = 0.0000 0.0000 1.0000 (  3002 PWs)   bands (ev):

    -5.3362  -1.8627   2.3838   2.3838   6.5259   6.8032  15.8056  15.8056
    16.6408  18.8815  18.8815  18.9706  19.3536  20.7776  25.2757  25.6702
    25.6702  25.6987  25.7839  25.8623  25.8623  27.3447  34.7466  35.5199

          k =-0.2500 0.2500 0.7500 (  2988 PWs)   bands (ev):

    -5.8113  -1.2881   1.7685   3.0477   7.3874  10.1107  11.5428  12.3637
    15.8851  17.6110  18.1937  18.7053  19.6290  23.3092  24.3269  25.1425
    26.1972  26.3225  26.6430  28.6004  30.8388  31.3690  32.2904  33.6807

          k =-0.5000 0.5000 0.5000 (  2998 PWs)   bands (ev):

    -6.1140  -1.7081   3.9960   3.9960   6.3174   9.8934   9.8934  13.0252
    15.9680  17.5344  17.5344  18.1734  18.5679  18.5679  25.2762  27.1836
    28.3667  28.3667  28.5973  28.5973  31.8616  32.6311  33.7316  33.7316

          k =-0.7500 0.7500 0.2500 (  2988 PWs)   bands (ev):

    -5.8113  -1.2881   1.7685   3.0477   7.3874  10.1107  11.5428  12.3637
    15.8851  17.6110  18.1937  18.7053  19.6290  23.3092  24.3269  25.1425
    26.1972  26.3225  26.6430  28.6004  30.8388  31.3690  32.2904  33.6807

          k = 0.2500 0.2500 1.2500 (  2988 PWs)   bands (ev):

    -5.8113  -1.2881   1.7685   3.0477   7.3874  10.1107  11.5428  12.3637
    15.8851  17.6110  18.1937  18.7053  19.6290  23.3092  24.3269  25.1425
    26.1972  26.3225  26.6430  28.6004  30.8388  31.3690  32.2904  33.6807

          k = 0.0000 0.5000 1.0000 (  2996 PWs)   bands (ev):

    -5.2842  -1.6423   1.4261   1.6517   9.9360  10.1364  10.8039  11.2433
    16.6228  17.8414  18.8462  19.5318  22.5635  23.1735  23.5440  24.0778
    25.6692  26.5567  27.4144  28.4524  30.3515  30.4135  32.6005  32.6553

          k =-0.2500 0.7500 0.7500 (  2988 PWs)   bands (ev):

    -5.8113  -1.2881   1.7685   3.0477   7.3874  10.1107  11.5428  12.3637
    15.8851  17.6110  18.1937  18.7053  19.6290  23.3092  24.3269  25.1425
    26.1972  26.3225  26.6430  28.6004  30.8388  31.3690  32.2904  33.6807

          k =-0.5000 1.0000 0.5000 (  2980 PWs)   bands (ev):

    -6.2376  -0.6258   1.6219   3.9076   8.0547  11.0261  11.0436  11.1628
    13.6782  15.8218  18.2792  18.9070  19.9699  23.0957  24.2270  25.3463
    25.6601  27.5297  28.0948  29.6466  30.9672  31.9543  32.7228  32.9012

          k =-0.7500-0.7500 0.7500 (  2959 PWs)   bands (ev):

    -7.1920   0.9186   4.4715   4.4715   6.8154   9.9055   9.9055  11.4096
    14.2972  14.3775  14.3775  17.4284  21.3842  21.3842  24.1975  24.6131
    24.6131  24.9438  32.6935  32.6935  33.2784  33.2784  34.6274  35.4367

          k =-1.0000-0.5000 0.5000 (  2980 PWs)   bands (ev):

    -6.2376  -0.6258   1.6219   3.9076   8.0547  11.0261  11.0436  11.1628
    13.6782  15.8218  18.2792  18.9070  19.9699  23.0957  24.2270  25.3463
    25.6601  27.5297  28.0948  29.6466  30.9672  31.9543  32.7228  32.9012

          k =-1.2500-0.2500 0.2500 (  2988 PWs)   bands (ev):

    -5.8113  -1.2881   1.7685   3.0477   7.3874  10.1107  11.5428  12.3637
    15.8851  17.6110  18.1937  18.7053  19.6290  23.3092  24.3269  25.1425
    26.1972  26.3225  26.6430  28.6004  30.8388  31.3690  32.2904  33.6807

          k =-1.5000 0.0000 0.0000 (  2978 PWs)   bands (ev):

    -6.9536   1.0164   3.4031   3.4031   7.1470   8.6115  12.0405  12.0405
    12.8347  16.6297  16.9271  19.2382  19.2382  19.7944  24.0381  24.0381
    25.7849  25.9444  27.1619  33.0330  33.6369  33.6369  34.3517  35.4471

          k =-0.5000-0.5000 1.0000 (  2980 PWs)   bands (ev):

    -6.2376  -0.6258   1.6219   3.9076   8.0547  11.0261  11.0436  11.1628
    13.6782  15.8218  18.2792  18.9070  19.9699  23.0957  24.2270  25.3463
    25.6601  27.5297  28.0948  29.6466  30.9672  31.9543  32.7228  32.9012

          k =-0.7500-0.2500 0.7500 (  2988 PWs)   bands (ev):

    -5.8113  -1.2881   1.7685   3.0477   7.3874  10.1107  11.5428  12.3637
    15.8851  17.6110  18.1937  18.7053  19.6290  23.3092  24.3269  25.1425
    26.1972  26.3225  26.6430  28.6004  30.8388  31.3690  32.2904  33.6807

          k =-1.0000 0.0000 0.5000 (  2996 PWs)   bands (ev):

    -5.2842  -1.6423   1.4261   1.6517   9.9360  10.1364  10.8039  11.2433
    16.6228  17.8414  18.8462  19.5318  22.5635  23.1735  23.5440  24.0778
    25.6692  26.5567  27.4144  28.4524  30.3515  30.4135  32.6005  32.6553

          k =-1.2500 0.2500 0.2500 (  2988 PWs)   bands (ev):

    -5.8113  -1.2881   1.7685   3.0477   7.3874  10.1107  11.5428  12.3637
    15.8851  17.6110  18.1937  18.7053  19.6290  23.3092  24.3269  25.1425
    26.1972  26.3225  26.6430  28.6004  30.8388  31.3690  32.2904  33.6807

          k =-0.2500-0.2500 1.2500 (  2988 PWs)   bands (ev):

    -5.8113  -1.2881   1.7685   3.0477   7.3874  10.1107  11.5428  12.3637
    15.8851  17.6110  18.1937  18.7053  19.6290  23.3092  24.3269  25.1425
    26.1972  26.3225  26.6430  28.6004  30.8388  31.3690  32.2904  33.6807

          k =-0.5000 0.0000 1.0000 (  2996 PWs)   bands (ev):

    -5.2842  -1.6423   1.4261   1.6517   9.9360  10.1364  10.8039  11.2433
    16.6228  17.8414  18.8462  19.5318  22.5635  23.1735  23.5440  24.0778
    25.6692  26.5567  27.4144  28.4524  30.3515  30.4135  32.6005  32.6553

          k =-0.7500 0.2500 0.7500 (  2988 PWs)   bands (ev):

    -5.8113  -1.2881   1.7685   3.0477   7.3874  10.1107  11.5428  12.3637
    15.8851  17.6110  18.1937  18.7053  19.6290  23.3092  24.3269  25.1425
    26.1972  26.3225  26.6430  28.6004  30.8388  31.3690  32.2904  33.6807

          k =-1.0000 0.5000 0.5000 (  2980 PWs)   bands (ev):

    -6.2376  -0.6258   1.6219   3.9076   8.0547  11.0261  11.0436  11.1628
    13.6782  15.8218  18.2792  18.9070  19.9699  23.0957  24.2270  25.3463
    25.6601  27.5297  28.0948  29.6466  30.9672  31.9543  32.7228  32.9012

          k = 0.0000 0.0000 1.5000 (  2978 PWs)   bands (ev):

    -6.9536   1.0164   3.4031   3.4031   7.1470   8.6115  12.0405  12.0405
    12.8347  16.6297  16.9271  19.2382  19.2382  19.7944  24.0381  24.0381
    25.7849  25.9444  27.1619  33.0330  33.6369  33.6369  34.3517  35.4471

          k =-0.2500 0.2500 1.2500 (  2988 PWs)   bands (ev):

    -5.8113  -1.2881   1.7685   3.0477   7.3874  10.1107  11.5428  12.3637
    15.8851  17.6110  18.1937  18.7053  19.6290  23.3092  24.3269  25.1425
    26.1972  26.3225  26.6430  28.6004  30.8388  31.3690  32.2904  33.6807

          k =-0.5000 0.5000 1.0000 (  2980 PWs)   bands (ev):

    -6.2376  -0.6258   1.6219   3.9076   8.0547  11.0261  11.0436  11.1628
    13.6782  15.8218  18.2792  18.9070  19.9699  23.0957  24.2270  25.3463
    25.6601  27.5297  28.0948  29.6466  30.9672  31.9543  32.7228  32.9012

          k =-0.7500 0.7500 0.7500 (  2959 PWs)   bands (ev):

    -7.1920   0.9186   4.4715   4.4715   6.8154   9.9055   9.9055  11.4096
    14.2972  14.3775  14.3775  17.4284  21.3842  21.3842  24.1975  24.6131
    24.6131  24.9438  32.6935  32.6935  33.2784  33.2784  34.6274  35.4367

     highest occupied, lowest unoccupied level (ev):     5.1779    6.0669

     Writing all to output data dir ./tmp/gaas.save/ :
     XML data file, pseudopotentials, collected wavefunctions
 
     init_run     :      0.04s CPU      1.80s WALL (       1 calls)
     electrons    :      1.44s CPU      3.15s WALL (       1 calls)

     Called by init_run:
     wfcinit      :      0.00s CPU      1.64s WALL (       1 calls)
     potinit      :      0.01s CPU      0.07s WALL (       1 calls)
     hinit0       :      0.02s CPU      0.03s WALL (       1 calls)

     Called by electrons:
     c_bands      :      1.44s CPU      3.14s WALL (       1 calls)
     v_of_rho     :      0.00s CPU      0.00s WALL (       1 calls)

     Called by c_bands:
     init_us_2    :      0.00s CPU      0.00s WALL (       8 calls)
     cegterg      :      0.84s CPU      0.86s WALL (      16 calls)

     Called by *egterg:
     cdiaghg      :      0.14s CPU      0.15s WALL (     273 calls)
     h_psi        :      0.61s CPU      0.64s WALL (     289 calls)
     g_psi        :      0.00s CPU      0.00s WALL (     265 calls)

     Called by h_psi:
     h_psi:calbec :      0.02s CPU      0.02s WALL (     289 calls)
     vloc_psi     :      0.58s CPU      0.60s WALL (     289 calls)
     add_vuspsi   :      0.01s CPU      0.01s WALL (     289 calls)

     General routines
     calbec       :      0.02s CPU      0.02s WALL (     289 calls)
     fft          :      0.00s CPU      0.00s WALL (       3 calls)
     fftw         :      0.52s CPU      0.54s WALL (    7444 calls)
     davcio       :      0.00s CPU      1.64s WALL (      16 calls)
 
     Parallel routines
 
     PWSCF        :      1.77s CPU      9.69s WALL

 
   This run was terminated on:   2: 5:41  12Sep2025            

=------------------------------------------------------------------------------=
   JOB DONE.
=------------------------------------------------------------------------------=
