
     Program PWSCF v.7.3.1 starts on 12Sep2025 at  1:46:27 

     This program is part of the open-source Quantum ESPRESSO suite
     for quantum simulation of materials; please cite
         "P. Giannozzi et al., J. Phys.:Condens. Matter 21 395502 (2009);
         "P. Giannozzi et al., J. Phys.:Condens. Matter 29 465901 (2017);
         "P. Giannozzi et al., J. Chem. Phys. 152 154105 (2020);
          URL http://www.quantum-espresso.org", 
     in publications or presentations arising from this work. More details at
     http://www.quantum-espresso.org/quote

     Parallel version (MPI), running on    64 processors

     MPI processes distributed on     1 nodes
     509935 MiB available memory on the printing compute node when the environment starts
 
     Reading input from nscf.in
Warning: card &IONS ignored
Warning: card / ignored
Warning: card &CELL ignored
Warning: card PRESS_CONV_THR = 0.01 ignored
Warning: card / ignored

     Current dimensions of program PWSCF are:
     Max number of different atomic species (ntypx) = 10
     Max number of k-points (npk) =  40000
     Max angular momentum in pseudopotentials (lmaxx) =  4

     Atomic positions and unit cell read from directory:
     ./tmp/si.save/
 
 
     K-points division:     npool     =       4
     R & G space division:  proc/nbgrp/npool/nimage =      16
     Subspace diagonalization in iterative solution of the eigenvalue problem:
     a serial algorithm will be used

 
     Parallelization info
     --------------------
     sticks:   dense  smooth     PW     G-vecs:    dense   smooth      PW
     Min          36      36     12                  577      577     109
     Max          37      37     14                  580      580     110
     Sum         583     583    199                 9257     9257    1759
 
     Using Slab Decomposition
 


     bravais-lattice index     =            2
     lattice parameter (alat)  =      10.2640  a.u.
     unit-cell volume          =     270.3273 (a.u.)^3
     number of atoms/cell      =            2
     number of atomic types    =            1
     number of electrons       =         8.00
     number of Kohn-Sham states=           16
     kinetic-energy cutoff     =      40.0000  Ry
     charge density cutoff     =     160.0000  Ry
     Exchange-correlation= PBESOL
                           (   1   4  10   8   0   0   0)

     celldm(1)=  10.264000  celldm(2)=   0.000000  celldm(3)=   0.000000
     celldm(4)=   0.000000  celldm(5)=   0.000000  celldm(6)=   0.000000

     crystal axes: (cart. coord. in units of alat)
               a(1) = (  -0.500000   0.000000   0.500000 )  
               a(2) = (   0.000000   0.500000   0.500000 )  
               a(3) = (  -0.500000   0.500000   0.000000 )  

     reciprocal axes: (cart. coord. in units 2 pi/alat)
               b(1) = ( -1.000000 -1.000000  1.000000 )  
               b(2) = (  1.000000  1.000000  1.000000 )  
               b(3) = ( -1.000000  1.000000 -1.000000 )  


     PseudoPot. # 1 for Si read from file:
     ../pseudo/Si_DOJO_PBEsol.upf
     MD5 check sum: 634e5fb0bdd2c4a07ca8312dc9ca950d
     Pseudo is Norm-conserving + core correction, Zval =  4.0
     Generated using ONCVPSP code by D. R. Hamann
     Using radial grid of 1528 points,  6 beta functions with: 
                l(1) =   0
                l(2) =   0
                l(3) =   1
                l(4) =   1
                l(5) =   2
                l(6) =   2

     atomic species   valence    mass     pseudopotential
     Si                4.00    28.08500     Si( 1.00)

     48 Sym. Ops., with inversion, found (24 have fractional translation)



   Cartesian axes

     site n.     atom                  positions (alat units)
         1        Si     tau(   1) = (   0.0000000   0.0000000   0.0000000  )
         2        Si     tau(   2) = (   0.2500000   0.2500000   0.2500000  )

     number of k points=    64
                       cart. coord. in units 2pi/alat
        k(    1) = (   0.0000000   0.0000000   0.0000000), wk =   0.0312500
        k(    2) = (  -0.2500000   0.2500000  -0.2500000), wk =   0.0312500
        k(    3) = (  -0.5000000   0.5000000  -0.5000000), wk =   0.0312500
        k(    4) = (  -0.7500000   0.7500000  -0.7500000), wk =   0.0312500
        k(    5) = (   0.2500000   0.2500000   0.2500000), wk =   0.0312500
        k(    6) = (   0.0000000   0.5000000   0.0000000), wk =   0.0312500
        k(    7) = (  -0.2500000   0.7500000  -0.2500000), wk =   0.0312500
        k(    8) = (  -0.5000000   1.0000000  -0.5000000), wk =   0.0312500
        k(    9) = (   0.5000000   0.5000000   0.5000000), wk =   0.0312500
        k(   10) = (   0.2500000   0.7500000   0.2500000), wk =   0.0312500
        k(   11) = (   0.0000000   1.0000000   0.0000000), wk =   0.0312500
        k(   12) = (  -0.2500000   1.2500000  -0.2500000), wk =   0.0312500
        k(   13) = (   0.7500000   0.7500000   0.7500000), wk =   0.0312500
        k(   14) = (   0.5000000   1.0000000   0.5000000), wk =   0.0312500
        k(   15) = (   0.2500000   1.2500000   0.2500000), wk =   0.0312500
        k(   16) = (   0.0000000   1.5000000   0.0000000), wk =   0.0312500
        k(   17) = (  -0.2500000  -0.2500000   0.2500000), wk =   0.0312500
        k(   18) = (  -0.5000000   0.0000000   0.0000000), wk =   0.0312500
        k(   19) = (  -0.7500000   0.2500000  -0.2500000), wk =   0.0312500
        k(   20) = (  -1.0000000   0.5000000  -0.5000000), wk =   0.0312500
        k(   21) = (   0.0000000   0.0000000   0.5000000), wk =   0.0312500
        k(   22) = (  -0.2500000   0.2500000   0.2500000), wk =   0.0312500
        k(   23) = (  -0.5000000   0.5000000   0.0000000), wk =   0.0312500
        k(   24) = (  -0.7500000   0.7500000  -0.2500000), wk =   0.0312500
        k(   25) = (   0.2500000   0.2500000   0.7500000), wk =   0.0312500
        k(   26) = (   0.0000000   0.5000000   0.5000000), wk =   0.0312500
        k(   27) = (  -0.2500000   0.7500000   0.2500000), wk =   0.0312500
        k(   28) = (  -0.5000000   1.0000000   0.0000000), wk =   0.0312500
        k(   29) = (   0.5000000   0.5000000   1.0000000), wk =   0.0312500
        k(   30) = (   0.2500000   0.7500000   0.7500000), wk =   0.0312500
        k(   31) = (   0.0000000   1.0000000   0.5000000), wk =   0.0312500
        k(   32) = (  -0.2500000   1.2500000   0.2500000), wk =   0.0312500
        k(   33) = (  -0.5000000  -0.5000000   0.5000000), wk =   0.0312500
        k(   34) = (  -0.7500000  -0.2500000   0.2500000), wk =   0.0312500
        k(   35) = (  -1.0000000   0.0000000   0.0000000), wk =   0.0312500
        k(   36) = (  -1.2500000   0.2500000  -0.2500000), wk =   0.0312500
        k(   37) = (  -0.2500000  -0.2500000   0.7500000), wk =   0.0312500
        k(   38) = (  -0.5000000   0.0000000   0.5000000), wk =   0.0312500
        k(   39) = (  -0.7500000   0.2500000   0.2500000), wk =   0.0312500
        k(   40) = (  -1.0000000   0.5000000   0.0000000), wk =   0.0312500
        k(   41) = (   0.0000000   0.0000000   1.0000000), wk =   0.0312500
        k(   42) = (  -0.2500000   0.2500000   0.7500000), wk =   0.0312500
        k(   43) = (  -0.5000000   0.5000000   0.5000000), wk =   0.0312500
        k(   44) = (  -0.7500000   0.7500000   0.2500000), wk =   0.0312500
        k(   45) = (   0.2500000   0.2500000   1.2500000), wk =   0.0312500
        k(   46) = (   0.0000000   0.5000000   1.0000000), wk =   0.0312500
        k(   47) = (  -0.2500000   0.7500000   0.7500000), wk =   0.0312500
        k(   48) = (  -0.5000000   1.0000000   0.5000000), wk =   0.0312500
        k(   49) = (  -0.7500000  -0.7500000   0.7500000), wk =   0.0312500
        k(   50) = (  -1.0000000  -0.5000000   0.5000000), wk =   0.0312500
        k(   51) = (  -1.2500000  -0.2500000   0.2500000), wk =   0.0312500
        k(   52) = (  -1.5000000   0.0000000   0.0000000), wk =   0.0312500
        k(   53) = (  -0.5000000  -0.5000000   1.0000000), wk =   0.0312500
        k(   54) = (  -0.7500000  -0.2500000   0.7500000), wk =   0.0312500
        k(   55) = (  -1.0000000   0.0000000   0.5000000), wk =   0.0312500
        k(   56) = (  -1.2500000   0.2500000   0.2500000), wk =   0.0312500
        k(   57) = (  -0.2500000  -0.2500000   1.2500000), wk =   0.0312500
        k(   58) = (  -0.5000000   0.0000000   1.0000000), wk =   0.0312500
        k(   59) = (  -0.7500000   0.2500000   0.7500000), wk =   0.0312500
        k(   60) = (  -1.0000000   0.5000000   0.5000000), wk =   0.0312500
        k(   61) = (   0.0000000   0.0000000   1.5000000), wk =   0.0312500
        k(   62) = (  -0.2500000   0.2500000   1.2500000), wk =   0.0312500
        k(   63) = (  -0.5000000   0.5000000   1.0000000), wk =   0.0312500
        k(   64) = (  -0.7500000   0.7500000   0.7500000), wk =   0.0312500

     Dense  grid:     9257 G-vectors     FFT dimensions: (  32,  32,  32)

     Estimated max dynamical RAM per process >       1.41 MB

     Estimated total dynamical RAM >      90.51 MB

     The potential is recalculated from file :
     ./tmp/si.save/charge-density

     Starting wfcs are    8 randomized atomic wfcs +    8 random wfcs

     Band Structure Calculation
     Davidson diagonalization with overlap

     ethr =  1.00E-13,  avg # of iterations = 60.2

     total cpu time spent up to now is        1.8 secs

     End of band structure calculation

          k = 0.0000 0.0000 0.0000 (  1139 PWs)   bands (ev):

    -5.8102   6.1782   6.1782   6.1782   8.6909   8.6909   8.6909   9.4627
    13.8778  13.8778  13.8910  17.2813  17.2813  17.2813  21.2688  29.0612

          k =-0.2500 0.2500-0.2500 (  1164 PWs)   bands (ev):

    -5.0081   2.2227   5.4114   5.4114   8.1275   9.6337   9.6337  13.0030
    13.3206  13.3206  14.9667  17.8405  20.7200  20.7200  23.9356  23.9356

          k =-0.5000 0.5000-0.5000 (  1158 PWs)   bands (ev):

    -3.4642  -0.8372   4.9725   4.9725   7.6319   9.4540   9.4540  13.6991
    16.6938  16.6938  17.3853  17.4492  17.4492  19.0688  25.3826  26.0248

          k =-0.7500 0.7500-0.7500 (  1164 PWs)   bands (ev):

    -5.0081   2.2227   5.4114   5.4114   8.1275   9.6337   9.6337  13.0030
    13.3206  13.3206  14.9667  17.8405  20.7200  20.7200  23.9356  23.9356

          k = 0.2500 0.2500 0.2500 (  1164 PWs)   bands (ev):

    -5.0081   2.2227   5.4114   5.4114   8.1275   9.6337   9.6337  13.0030
    13.3206  13.3206  14.9667  17.8405  20.7200  20.7200  23.9356  23.9356

          k = 0.0000 0.5000 0.0000 (  1174 PWs)   bands (ev):

    -4.7255   2.6515   4.2689   4.2689   7.2129   9.2064  11.8951  11.8951
    14.1689  15.0857  17.4068  19.0685  19.0685  19.7276  23.4673  23.4673

          k =-0.2500 0.7500-0.2500 (  1156 PWs)   bands (ev):

    -3.0813  -0.2266   2.5992   3.9542   7.5952  10.5398  11.8605  12.0447
    16.2789  16.6677  18.2945  18.7781  19.0678  22.8598  23.8088  24.6883

          k =-0.5000 1.0000-0.5000 (  1159 PWs)   bands (ev):

    -3.7589   0.6804   2.3740   4.8397   8.5419  10.9158  11.2395  12.2305
    12.5643  15.7223  18.6535  19.3141  19.4760  22.6900  23.1537  23.5019

          k = 0.5000 0.5000 0.5000 (  1158 PWs)   bands (ev):

    -3.4642  -0.8372   4.9725   4.9725   7.6319   9.4540   9.4540  13.6991
    16.6938  16.6938  17.3853  17.4492  17.4492  19.0688  25.3826  26.0248

          k = 0.2500 0.7500 0.2500 (  1156 PWs)   bands (ev):

    -3.0813  -0.2266   2.5992   3.9542   7.5952  10.5398  11.8605  12.0447
    16.2789  16.6677  18.2945  18.7781  19.0678  22.8598  23.8088  24.6883

          k = 0.0000 1.0000 0.0000 (  1162 PWs)   bands (ev):

    -1.6547  -1.6547   3.3026   3.3026   6.7728   6.7728  16.2115  16.2115
    17.1183  17.1183  18.6754  18.6754  19.1033  19.1033  24.8426  24.8426

          k =-0.2500 1.2500-0.2500 (  1156 PWs)   bands (ev):

    -3.0813  -0.2266   2.5992   3.9542   7.5952  10.5398  11.8605  12.0447
    16.2789  16.6677  18.2945  18.7781  19.0678  22.8598  23.8088  24.6883

          k = 0.7500 0.7500 0.7500 (  1164 PWs)   bands (ev):

    -5.0081   2.2227   5.4114   5.4114   8.1275   9.6337   9.6337  13.0030
    13.3206  13.3206  14.9667  17.8405  20.7200  20.7200  23.9356  23.9356

          k = 0.5000 1.0000 0.5000 (  1159 PWs)   bands (ev):

    -3.7589   0.6804   2.3740   4.8397   8.5419  10.9158  11.2395  12.2305
    12.5643  15.7223  18.6535  19.3141  19.4760  22.6900  23.1537  23.5019

          k = 0.2500 1.2500 0.2500 (  1156 PWs)   bands (ev):

    -3.0813  -0.2266   2.5992   3.9542   7.5952  10.5398  11.8605  12.0447
    16.2789  16.6677  18.2945  18.7781  19.0678  22.8598  23.8088  24.6883

          k = 0.0000 1.5000 0.0000 (  1174 PWs)   bands (ev):

    -4.7255   2.6515   4.2689   4.2689   7.2129   9.2064  11.8951  11.8951
    14.1689  15.0857  17.4068  19.0685  19.0685  19.7276  23.4673  23.4673

          k =-0.2500-0.2500 0.2500 (  1164 PWs)   bands (ev):

    -5.0081   2.2227   5.4114   5.4114   8.1275   9.6337   9.6337  13.0030
    13.3206  13.3206  14.9667  17.8405  20.7200  20.7200  23.9356  23.9356

          k =-0.5000 0.0000 0.0000 (  1174 PWs)   bands (ev):

    -4.7255   2.6515   4.2689   4.2689   7.2129   9.2064  11.8951  11.8951
    14.1689  15.0857  17.4068  19.0685  19.0685  19.7276  23.4673  23.4673

          k =-0.7500 0.2500-0.2500 (  1156 PWs)   bands (ev):

    -3.0813  -0.2266   2.5992   3.9542   7.5952  10.5398  11.8605  12.0447
    16.2789  16.6677  18.2945  18.7781  19.0678  22.8598  23.8088  24.6883

          k =-1.0000 0.5000-0.5000 (  1159 PWs)   bands (ev):

    -3.7589   0.6804   2.3740   4.8397   8.5419  10.9158  11.2395  12.2305
    12.5643  15.7223  18.6535  19.3141  19.4760  22.6900  23.1537  23.5019

          k = 0.0000 0.0000 0.5000 (  1174 PWs)   bands (ev):

    -4.7255   2.6515   4.2689   4.2689   7.2129   9.2064  11.8951  11.8951
    14.1689  15.0857  17.4068  19.0685  19.0685  19.7276  23.4673  23.4673

          k =-0.2500 0.2500 0.2500 (  1164 PWs)   bands (ev):

    -5.0081   2.2227   5.4114   5.4114   8.1275   9.6337   9.6337  13.0030
    13.3206  13.3206  14.9667  17.8405  20.7200  20.7200  23.9356  23.9356

          k =-0.5000 0.5000 0.0000 (  1159 PWs)   bands (ev):

    -3.7589   0.6804   2.3740   4.8397   8.5419  10.9158  11.2395  12.2305
    12.5643  15.7223  18.6535  19.3141  19.4760  22.6900  23.1537  23.5019

          k =-0.7500 0.7500-0.2500 (  1156 PWs)   bands (ev):

    -3.0813  -0.2266   2.5992   3.9542   7.5952  10.5398  11.8605  12.0447
    16.2789  16.6677  18.2945  18.7781  19.0678  22.8598  23.8088  24.6883

          k = 0.2500 0.2500 0.7500 (  1156 PWs)   bands (ev):

    -3.0813  -0.2266   2.5992   3.9542   7.5952  10.5398  11.8605  12.0447
    16.2789  16.6677  18.2945  18.7781  19.0678  22.8598  23.8088  24.6883

          k = 0.0000 0.5000 0.5000 (  1159 PWs)   bands (ev):

    -3.7589   0.6804   2.3740   4.8397   8.5419  10.9158  11.2395  12.2305
    12.5643  15.7223  18.6535  19.3141  19.4760  22.6900  23.1537  23.5019

          k =-0.2500 0.7500 0.2500 (  1156 PWs)   bands (ev):

    -3.0813  -0.2266   2.5992   3.9542   7.5952  10.5398  11.8605  12.0447
    16.2789  16.6677  18.2945  18.7781  19.0678  22.8598  23.8088  24.6883

          k =-0.5000 1.0000 0.0000 (  1144 PWs)   bands (ev):

    -1.4854  -1.4854   2.2719   2.2719  10.3585  10.3585  11.1141  11.1141
    16.6999  16.6999  19.1496  19.1496  22.4546  22.4546  24.6001  24.6001

          k = 0.5000 0.5000 1.0000 (  1159 PWs)   bands (ev):

    -3.7589   0.6804   2.3740   4.8397   8.5419  10.9158  11.2395  12.2305
    12.5643  15.7223  18.6535  19.3141  19.4760  22.6900  23.1537  23.5019

          k = 0.2500 0.7500 0.7500 (  1156 PWs)   bands (ev):

    -3.0813  -0.2266   2.5992   3.9542   7.5952  10.5398  11.8605  12.0447
    16.2789  16.6677  18.2945  18.7781  19.0678  22.8598  23.8088  24.6883

          k = 0.0000 1.0000 0.5000 (  1144 PWs)   bands (ev):

    -1.4854  -1.4854   2.2719   2.2719  10.3585  10.3585  11.1141  11.1141
    16.6999  16.6999  19.1496  19.1496  22.4546  22.4546  24.6001  24.6001

          k =-0.2500 1.2500 0.2500 (  1156 PWs)   bands (ev):

    -3.0813  -0.2266   2.5992   3.9542   7.5952  10.5398  11.8605  12.0447
    16.2789  16.6677  18.2945  18.7781  19.0678  22.8598  23.8088  24.6883

          k =-0.5000-0.5000 0.5000 (  1158 PWs)   bands (ev):

    -3.4642  -0.8372   4.9725   4.9725   7.6319   9.4540   9.4540  13.6991
    16.6938  16.6938  17.3853  17.4492  17.4492  19.0688  25.3826  26.0248

          k =-0.7500-0.2500 0.2500 (  1156 PWs)   bands (ev):

    -3.0813  -0.2266   2.5992   3.9542   7.5952  10.5398  11.8605  12.0447
    16.2789  16.6677  18.2945  18.7781  19.0678  22.8598  23.8088  24.6883

          k =-1.0000 0.0000 0.0000 (  1162 PWs)   bands (ev):

    -1.6547  -1.6547   3.3026   3.3026   6.7728   6.7728  16.2115  16.2115
    17.1183  17.1183  18.6754  18.6754  19.1033  19.1033  24.8426  24.8426

          k =-1.2500 0.2500-0.2500 (  1156 PWs)   bands (ev):

    -3.0813  -0.2266   2.5992   3.9542   7.5952  10.5398  11.8605  12.0447
    16.2789  16.6677  18.2945  18.7781  19.0678  22.8598  23.8088  24.6883

          k =-0.2500-0.2500 0.7500 (  1156 PWs)   bands (ev):

    -3.0813  -0.2266   2.5992   3.9542   7.5952  10.5398  11.8605  12.0447
    16.2789  16.6677  18.2945  18.7781  19.0678  22.8598  23.8088  24.6883

          k =-0.5000 0.0000 0.5000 (  1159 PWs)   bands (ev):

    -3.7589   0.6804   2.3740   4.8397   8.5419  10.9158  11.2395  12.2305
    12.5643  15.7223  18.6535  19.3141  19.4760  22.6900  23.1537  23.5019

          k =-0.7500 0.2500 0.2500 (  1156 PWs)   bands (ev):

    -3.0813  -0.2266   2.5992   3.9542   7.5952  10.5398  11.8605  12.0447
    16.2789  16.6677  18.2945  18.7781  19.0678  22.8598  23.8088  24.6883

          k =-1.0000 0.5000 0.0000 (  1144 PWs)   bands (ev):

    -1.4854  -1.4854   2.2719   2.2719  10.3585  10.3585  11.1141  11.1141
    16.6999  16.6999  19.1496  19.1496  22.4546  22.4546  24.6001  24.6001

          k = 0.0000 0.0000 1.0000 (  1162 PWs)   bands (ev):

    -1.6547  -1.6547   3.3026   3.3026   6.7728   6.7728  16.2115  16.2115
    17.1183  17.1183  18.6754  18.6754  19.1033  19.1033  24.8426  24.8426

          k =-0.2500 0.2500 0.7500 (  1156 PWs)   bands (ev):

    -3.0813  -0.2266   2.5992   3.9542   7.5952  10.5398  11.8605  12.0447
    16.2789  16.6677  18.2945  18.7781  19.0678  22.8598  23.8088  24.6883

          k =-0.5000 0.5000 0.5000 (  1158 PWs)   bands (ev):

    -3.4642  -0.8372   4.9725   4.9725   7.6319   9.4540   9.4540  13.6991
    16.6938  16.6938  17.3853  17.4492  17.4492  19.0688  25.3826  26.0248

          k =-0.7500 0.7500 0.2500 (  1156 PWs)   bands (ev):

    -3.0813  -0.2266   2.5992   3.9542   7.5952  10.5398  11.8605  12.0447
    16.2789  16.6677  18.2945  18.7781  19.0678  22.8598  23.8088  24.6883

          k = 0.2500 0.2500 1.2500 (  1156 PWs)   bands (ev):

    -3.0813  -0.2266   2.5992   3.9542   7.5952  10.5398  11.8605  12.0447
    16.2789  16.6677  18.2945  18.7781  19.0678  22.8598  23.8088  24.6883

          k = 0.0000 0.5000 1.0000 (  1144 PWs)   bands (ev):

    -1.4854  -1.4854   2.2719   2.2719  10.3585  10.3585  11.1141  11.1141
    16.6999  16.6999  19.1496  19.1496  22.4546  22.4546  24.6001  24.6001

          k =-0.2500 0.7500 0.7500 (  1156 PWs)   bands (ev):

    -3.0813  -0.2266   2.5992   3.9542   7.5952  10.5398  11.8605  12.0447
    16.2789  16.6677  18.2945  18.7781  19.0678  22.8598  23.8088  24.6883

          k =-0.5000 1.0000 0.5000 (  1159 PWs)   bands (ev):

    -3.7589   0.6804   2.3740   4.8397   8.5419  10.9158  11.2395  12.2305
    12.5643  15.7223  18.6535  19.3141  19.4760  22.6900  23.1537  23.5019

          k =-0.7500-0.7500 0.7500 (  1164 PWs)   bands (ev):

    -5.0081   2.2227   5.4114   5.4114   8.1275   9.6337   9.6337  13.0030
    13.3206  13.3206  14.9667  17.8405  20.7200  20.7200  23.9356  23.9356

          k =-1.0000-0.5000 0.5000 (  1159 PWs)   bands (ev):

    -3.7589   0.6804   2.3740   4.8397   8.5419  10.9158  11.2395  12.2305
    12.5643  15.7223  18.6535  19.3141  19.4760  22.6900  23.1537  23.5019

          k =-1.2500-0.2500 0.2500 (  1156 PWs)   bands (ev):

    -3.0813  -0.2266   2.5992   3.9542   7.5952  10.5398  11.8605  12.0447
    16.2789  16.6677  18.2945  18.7781  19.0678  22.8598  23.8088  24.6883

          k =-1.5000 0.0000 0.0000 (  1174 PWs)   bands (ev):

    -4.7255   2.6515   4.2689   4.2689   7.2129   9.2064  11.8951  11.8951
    14.1689  15.0857  17.4068  19.0685  19.0685  19.7276  23.4673  23.4673

          k =-0.5000-0.5000 1.0000 (  1159 PWs)   bands (ev):

    -3.7589   0.6804   2.3740   4.8397   8.5419  10.9158  11.2395  12.2305
    12.5643  15.7223  18.6535  19.3141  19.4760  22.6900  23.1537  23.5019

          k =-0.7500-0.2500 0.7500 (  1156 PWs)   bands (ev):

    -3.0813  -0.2266   2.5992   3.9542   7.5952  10.5398  11.8605  12.0447
    16.2789  16.6677  18.2945  18.7781  19.0678  22.8598  23.8088  24.6883

          k =-1.0000 0.0000 0.5000 (  1144 PWs)   bands (ev):

    -1.4854  -1.4854   2.2719   2.2719  10.3585  10.3585  11.1141  11.1141
    16.6999  16.6999  19.1496  19.1496  22.4546  22.4546  24.6001  24.6001

          k =-1.2500 0.2500 0.2500 (  1156 PWs)   bands (ev):

    -3.0813  -0.2266   2.5992   3.9542   7.5952  10.5398  11.8605  12.0447
    16.2789  16.6677  18.2945  18.7781  19.0678  22.8598  23.8088  24.6883

          k =-0.2500-0.2500 1.2500 (  1156 PWs)   bands (ev):

    -3.0813  -0.2266   2.5992   3.9542   7.5952  10.5398  11.8605  12.0447
    16.2789  16.6677  18.2945  18.7781  19.0678  22.8598  23.8088  24.6883

          k =-0.5000 0.0000 1.0000 (  1144 PWs)   bands (ev):

    -1.4854  -1.4854   2.2719   2.2719  10.3585  10.3585  11.1141  11.1141
    16.6999  16.6999  19.1496  19.1496  22.4546  22.4546  24.6001  24.6001

          k =-0.7500 0.2500 0.7500 (  1156 PWs)   bands (ev):

    -3.0813  -0.2266   2.5992   3.9542   7.5952  10.5398  11.8605  12.0447
    16.2789  16.6677  18.2945  18.7781  19.0678  22.8598  23.8088  24.6883

          k =-1.0000 0.5000 0.5000 (  1159 PWs)   bands (ev):

    -3.7589   0.6804   2.3740   4.8397   8.5419  10.9158  11.2395  12.2305
    12.5643  15.7223  18.6535  19.3141  19.4760  22.6900  23.1537  23.5019

          k = 0.0000 0.0000 1.5000 (  1174 PWs)   bands (ev):

    -4.7255   2.6515   4.2689   4.2689   7.2129   9.2064  11.8951  11.8951
    14.1689  15.0857  17.4068  19.0685  19.0685  19.7276  23.4673  23.4673

          k =-0.2500 0.2500 1.2500 (  1156 PWs)   bands (ev):

    -3.0813  -0.2266   2.5992   3.9542   7.5952  10.5398  11.8605  12.0447
    16.2789  16.6677  18.2945  18.7781  19.0678  22.8598  23.8088  24.6883

          k =-0.5000 0.5000 1.0000 (  1159 PWs)   bands (ev):

    -3.7589   0.6804   2.3740   4.8397   8.5419  10.9158  11.2395  12.2305
    12.5643  15.7223  18.6535  19.3141  19.4760  22.6900  23.1537  23.5019

          k =-0.7500 0.7500 0.7500 (  1164 PWs)   bands (ev):

    -5.0081   2.2227   5.4114   5.4114   8.1275   9.6337   9.6337  13.0030
    13.3206  13.3206  14.9667  17.8405  20.7200  20.7200  23.9356  23.9356

     highest occupied, lowest unoccupied level (ev):     6.1782    6.7728

     Writing all to output data dir ./tmp/si.save/ :
     XML data file, pseudopotentials, collected wavefunctions
 
     init_run     :      0.02s CPU      0.15s WALL (       1 calls)
     electrons    :      0.68s CPU      0.77s WALL (       1 calls)

     Called by init_run:
     wfcinit      :      0.00s CPU      0.01s WALL (       1 calls)
     potinit      :      0.00s CPU      0.03s WALL (       1 calls)
     hinit0       :      0.01s CPU      0.02s WALL (       1 calls)

     Called by electrons:
     c_bands      :      0.68s CPU      0.76s WALL (       1 calls)
     v_of_rho     :      0.00s CPU      0.00s WALL (       1 calls)

     Called by c_bands:
     init_us_2    :      0.00s CPU      0.00s WALL (      16 calls)
     cegterg      :      0.58s CPU      0.62s WALL (      55 calls)

     Called by *egterg:
     cdiaghg      :      0.20s CPU      0.22s WALL (     928 calls)
     h_psi        :      0.33s CPU      0.35s WALL (     983 calls)
     g_psi        :      0.00s CPU      0.00s WALL (     912 calls)

     Called by h_psi:
     h_psi:calbec :      0.02s CPU      0.02s WALL (     983 calls)
     vloc_psi     :      0.30s CPU      0.32s WALL (     983 calls)
     add_vuspsi   :      0.01s CPU      0.01s WALL (     983 calls)

     General routines
     calbec       :      0.02s CPU      0.02s WALL (     983 calls)
     fft          :      0.00s CPU      0.00s WALL (      11 calls)
     fftw         :      0.27s CPU      0.29s WALL (   17454 calls)
     davcio       :      0.00s CPU      0.00s WALL (      32 calls)
 
     Parallel routines
 
     PWSCF        :      0.87s CPU      2.63s WALL

 
   This run was terminated on:   1:46:30  12Sep2025            

=------------------------------------------------------------------------------=
   JOB DONE.
=------------------------------------------------------------------------------=
